<?xml version="1.0" encoding="UTF-8"?>

<!-- generated on 2026-06-06 17:24:51 by Eclipse SUMO sumo Version 1.20.0
<configuration xmlns:xsi="http://www.w3.org/2001/XMLSchema-instance" xsi:noNamespaceSchemaLocation="http://sumo.dlr.de/xsd/sumoConfiguration.xsd">

    <input>
        <net-file value="/Users/mouadassargual/Desktop/Thesis Mouad/sumo/simple_intersection/simple.net.xml"/>
        <route-files value="/Users/mouadassargual/Desktop/Thesis Mouad/sumo/simple_intersection/routes.rou.xml"/>
    </input>

    <output>
        <summary-output value="/Users/mouadassargual/Desktop/Thesis Mouad/sumo/simple_intersection/results/fixed_native_summary.xml"/>
        <tripinfo-output value="/Users/mouadassargual/Desktop/Thesis Mouad/sumo/simple_intersection/results/fixed_native_tripinfo.xml"/>
    </output>

    <time>
        <begin value="0"/>
        <end value="600"/>
    </time>

    <report>
        <duration-log.disable value="true"/>
        <no-step-log value="true"/>
    </report>

    <traci_server>
        <remote-port value="8813"/>
    </traci_server>

</configuration>
-->

<tripinfos xmlns:xsi="http://www.w3.org/2001/XMLSchema-instance" xsi:noNamespaceSchemaLocation="http://sumo.dlr.de/xsd/tripinfo_file.xsd">
    <tripinfo id="N_0_0" depart="3.00" departLane="N_in_0" departPos="5.10" departSpeed="13.90" departDelay="0.00" arrival="41.00" arrivalLane="S_out_0" arrivalPos="242.80" arrivalSpeed="12.90" duration="38.00" routeLength="494.90" waitingTime="0.00" waitingCount="0" stopTime="0.00" timeLoss="1.77" rerouteNo="0" devices="tripinfo_N_0_0" vType="car" speedFactor="1.06" vaporized=""/>
    <tripinfo id="N_0_1" depart="9.00" departLane="N_in_0" departPos="5.10" departSpeed="13.90" departDelay="0.00" arrival="47.00" arrivalLane="S_out_0" arrivalPos="242.80" arrivalSpeed="13.66" duration="38.00" routeLength="494.90" waitingTime="0.00" waitingCount="0" stopTime="0.00" timeLoss="1.84" rerouteNo="0" devices="tripinfo_N_0_1" vType="car" speedFactor="1.01" vaporized=""/>
    <tripinfo id="W_0_0" depart="4.00" departLane="W_in_0" departPos="5.10" departSpeed="13.04" departDelay="0.25" arrival="52.00" arrivalLane="E_out_0" arrivalPos="242.80" arrivalSpeed="12.90" duration="48.00" routeLength="494.90" waitingTime="3.00" waitingCount="1" stopTime="0.00" timeLoss="10.06" rerouteNo="0" devices="tripinfo_W_0_0" vType="car" speedFactor="0.94" vaporized=""/>
    <tripinfo id="E_0_0" depart="15.00" departLane="E_in_0" departPos="5.10" departSpeed="13.90" departDelay="0.00" arrival="53.00" arrivalLane="W_out_0" arrivalPos="242.80" arrivalSpeed="12.78" duration="38.00" routeLength="494.90" waitingTime="0.00" waitingCount="0" stopTime="0.00" timeLoss="1.99" rerouteNo="0" devices="tripinfo_E_0_0" vType="car" speedFactor="1.05" vaporized=""/>
    <tripinfo id="W_0_1" depart="12.00" departLane="W_in_0" departPos="5.10" departSpeed="13.90" departDelay="0.75" arrival="54.00" arrivalLane="E_out_0" arrivalPos="242.80" arrivalSpeed="13.18" duration="42.00" routeLength="494.90" waitingTime="0.00" waitingCount="0" stopTime="0.00" timeLoss="6.09" rerouteNo="0" devices="tripinfo_W_0_1" vType="car" speedFactor="1.08" vaporized=""/>
    <tripinfo id="W_0_2" depart="19.00" departLane="W_in_0" departPos="5.10" departSpeed="12.32" departDelay="0.25" arrival="62.00" arrivalLane="E_out_0" arrivalPos="242.80" arrivalSpeed="11.34" duration="43.00" routeLength="494.90" waitingTime="0.00" waitingCount="0" stopTime="0.00" timeLoss="2.19" rerouteNo="0" devices="tripinfo_W_0_2" vType="car" speedFactor="0.89" vaporized=""/>
    <tripinfo id="W_0_3" depart="27.00" departLane="W_in_0" departPos="5.10" departSpeed="11.91" departDelay="0.75" arrival="72.00" arrivalLane="E_out_0" arrivalPos="242.80" arrivalSpeed="10.66" duration="45.00" routeLength="494.90" waitingTime="0.00" waitingCount="0" stopTime="0.00" timeLoss="2.65" rerouteNo="0" devices="tripinfo_W_0_3" vType="car" speedFactor="0.86" vaporized=""/>
    <tripinfo id="W_1_0" depart="34.00" departLane="W_in_0" departPos="5.10" departSpeed="13.90" departDelay="0.25" arrival="73.00" arrivalLane="E_out_0" arrivalPos="242.80" arrivalSpeed="13.13" duration="39.00" routeLength="494.90" waitingTime="0.00" waitingCount="0" stopTime="0.00" timeLoss="3.21" rerouteNo="0" devices="tripinfo_W_1_0" vType="car" speedFactor="1.05" vaporized=""/>
    <tripinfo id="E_1_0" depart="38.00" departLane="E_in_0" departPos="5.10" departSpeed="13.78" departDelay="0.50" arrival="76.00" arrivalLane="W_out_0" arrivalPos="242.80" arrivalSpeed="13.49" duration="38.00" routeLength="494.90" waitingTime="0.00" waitingCount="0" stopTime="0.00" timeLoss="1.74" rerouteNo="0" devices="tripinfo_E_1_0" vType="car" speedFactor="0.99" vaporized=""/>
    <tripinfo id="N_0_2" depart="15.00" departLane="N_in_0" departPos="5.10" departSpeed="13.90" departDelay="0.00" arrival="82.00" arrivalLane="S_out_0" arrivalPos="242.80" arrivalSpeed="12.98" duration="67.00" routeLength="494.90" waitingTime="23.00" waitingCount="1" stopTime="0.00" timeLoss="30.50" rerouteNo="0" devices="tripinfo_N_0_2" vType="car" speedFactor="1.03" vaporized=""/>
    <tripinfo id="S_0_0" depart="15.00" departLane="S_in_0" departPos="5.10" departSpeed="11.55" departDelay="0.00" arrival="85.00" arrivalLane="N_out_0" arrivalPos="242.80" arrivalSpeed="11.13" duration="70.00" routeLength="494.90" waitingTime="21.00" waitingCount="1" stopTime="0.00" timeLoss="27.00" rerouteNo="0" devices="tripinfo_S_0_0" vType="car" speedFactor="0.83" vaporized=""/>
    <tripinfo id="N_0_3" depart="21.00" departLane="N_in_0" departPos="5.10" departSpeed="13.04" departDelay="0.00" arrival="85.00" arrivalLane="S_out_0" arrivalPos="242.80" arrivalSpeed="12.92" duration="64.00" routeLength="494.90" waitingTime="16.00" waitingCount="1" stopTime="0.00" timeLoss="25.11" rerouteNo="0" devices="tripinfo_N_0_3" vType="car" speedFactor="0.94" vaporized=""/>
    <tripinfo id="N_0_4" depart="27.00" departLane="N_in_0" departPos="5.10" departSpeed="13.90" departDelay="0.00" arrival="86.00" arrivalLane="S_out_0" arrivalPos="242.80" arrivalSpeed="13.61" duration="59.00" routeLength="494.90" waitingTime="15.00" waitingCount="1" stopTime="0.00" timeLoss="23.13" rerouteNo="0" devices="tripinfo_N_0_4" vType="car" speedFactor="1.09" vaporized=""/>
    <tripinfo id="S_1_0" depart="45.00" departLane="S_in_0" departPos="5.10" departSpeed="13.09" departDelay="0.00" arrival="87.00" arrivalLane="N_out_0" arrivalPos="242.80" arrivalSpeed="12.30" duration="42.00" routeLength="494.90" waitingTime="0.00" waitingCount="0" stopTime="0.00" timeLoss="3.69" rerouteNo="0" devices="tripinfo_S_1_0" vType="car" speedFactor="0.94" vaporized=""/>
    <tripinfo id="N_1_0" depart="33.00" departLane="N_in_0" departPos="5.10" departSpeed="13.90" departDelay="0.50" arrival="88.00" arrivalLane="S_out_0" arrivalPos="242.80" arrivalSpeed="13.31" duration="55.00" routeLength="494.90" waitingTime="10.00" waitingCount="1" stopTime="0.00" timeLoss="18.91" rerouteNo="0" devices="tripinfo_N_1_0" vType="car" speedFactor="1.03" vaporized=""/>
    <tripinfo id="N_1_1" depart="38.00" departLane="N_in_0" departPos="5.10" departSpeed="13.90" departDelay="0.50" arrival="90.00" arrivalLane="S_out_0" arrivalPos="242.80" arrivalSpeed="13.22" duration="52.00" routeLength="494.90" waitingTime="7.00" waitingCount="1" stopTime="0.00" timeLoss="15.66" rerouteNo="0" devices="tripinfo_N_1_1" vType="car" speedFactor="1.12" vaporized=""/>
    <tripinfo id="N_1_2" depart="43.00" departLane="N_in_0" departPos="5.10" departSpeed="12.21" departDelay="0.50" arrival="94.00" arrivalLane="S_out_0" arrivalPos="242.80" arrivalSpeed="11.63" duration="51.00" routeLength="494.90" waitingTime="2.00" waitingCount="1" stopTime="0.00" timeLoss="9.85" rerouteNo="0" devices="tripinfo_N_1_2" vType="car" speedFactor="0.88" vaporized=""/>
    <tripinfo id="N_1_3" depart="48.00" departLane="N_in_0" departPos="5.10" departSpeed="13.01" departDelay="0.50" arrival="96.00" arrivalLane="S_out_0" arrivalPos="242.80" arrivalSpeed="12.08" duration="48.00" routeLength="494.90" waitingTime="0.00" waitingCount="0" stopTime="0.00" timeLoss="9.11" rerouteNo="0" devices="tripinfo_N_1_3" vType="car" speedFactor="0.94" vaporized=""/>
    <tripinfo id="N_1_4" depart="53.00" departLane="N_in_0" departPos="5.10" departSpeed="13.90" departDelay="0.50" arrival="97.00" arrivalLane="S_out_0" arrivalPos="242.80" arrivalSpeed="12.82" duration="44.00" routeLength="494.90" waitingTime="0.00" waitingCount="0" stopTime="0.00" timeLoss="8.28" rerouteNo="0" devices="tripinfo_N_1_4" vType="car" speedFactor="1.02" vaporized=""/>
    <tripinfo id="N_1_5" depart="58.00" departLane="N_in_0" departPos="5.10" departSpeed="12.37" departDelay="0.50" arrival="100.00" arrivalLane="S_out_0" arrivalPos="242.80" arrivalSpeed="11.58" duration="42.00" routeLength="494.90" waitingTime="0.00" waitingCount="0" stopTime="0.00" timeLoss="1.89" rerouteNo="0" devices="tripinfo_N_1_5" vType="car" speedFactor="0.89" vaporized=""/>
    <tripinfo id="N_2_0" depart="63.00" departLane="N_in_0" departPos="5.10" departSpeed="11.48" departDelay="0.86" arrival="109.00" arrivalLane="S_out_0" arrivalPos="242.80" arrivalSpeed="10.89" duration="46.00" routeLength="494.90" waitingTime="0.00" waitingCount="0" stopTime="0.00" timeLoss="2.58" rerouteNo="0" devices="tripinfo_N_2_0" vType="car" speedFactor="0.83" vaporized=""/>
    <tripinfo id="N_2_1" depart="67.00" departLane="N_in_0" departPos="5.10" departSpeed="12.75" departDelay="0.57" arrival="111.00" arrivalLane="S_out_0" arrivalPos="242.80" arrivalSpeed="11.46" duration="44.00" routeLength="494.90" waitingTime="0.00" waitingCount="0" stopTime="0.00" timeLoss="4.69" rerouteNo="0" devices="tripinfo_N_2_1" vType="car" speedFactor="0.92" vaporized=""/>
    <tripinfo id="E_1_1" depart="53.00" departLane="E_in_0" departPos="5.10" departSpeed="13.90" departDelay="0.50" arrival="112.00" arrivalLane="W_out_0" arrivalPos="242.80" arrivalSpeed="13.14" duration="59.00" routeLength="494.90" waitingTime="15.00" waitingCount="1" stopTime="0.00" timeLoss="22.99" rerouteNo="0" devices="tripinfo_E_1_1" vType="car" speedFactor="1.01" vaporized=""/>
    <tripinfo id="W_1_1" depart="42.00" departLane="W_in_0" departPos="5.10" departSpeed="12.88" departDelay="0.75" arrival="114.00" arrivalLane="E_out_0" arrivalPos="242.80" arrivalSpeed="12.01" duration="72.00" routeLength="494.90" waitingTime="26.00" waitingCount="1" stopTime="0.00" timeLoss="32.85" rerouteNo="0" devices="tripinfo_W_1_1" vType="car" speedFactor="0.93" vaporized=""/>
    <tripinfo id="W_1_2" depart="49.00" departLane="W_in_0" departPos="5.10" departSpeed="13.90" departDelay="0.25" arrival="115.00" arrivalLane="E_out_0" arrivalPos="242.80" arrivalSpeed="13.60" duration="66.00" routeLength="494.90" waitingTime="21.00" waitingCount="1" stopTime="0.00" timeLoss="30.29" rerouteNo="0" devices="tripinfo_W_1_2" vType="car" speedFactor="1.16" vaporized=""/>
    <tripinfo id="E_2_0" depart="68.00" departLane="E_in_0" departPos="5.10" departSpeed="13.19" departDelay="0.50" arrival="115.00" arrivalLane="W_out_0" arrivalPos="242.80" arrivalSpeed="11.90" duration="47.00" routeLength="494.90" waitingTime="0.00" waitingCount="0" stopTime="0.00" timeLoss="8.76" rerouteNo="0" devices="tripinfo_E_2_0" vType="car" speedFactor="0.95" vaporized=""/>
    <tripinfo id="W_1_3" depart="57.00" departLane="W_in_0" departPos="5.10" departSpeed="13.55" departDelay="0.75" arrival="117.00" arrivalLane="E_out_0" arrivalPos="242.80" arrivalSpeed="12.77" duration="60.00" routeLength="494.90" waitingTime="15.00" waitingCount="1" stopTime="0.00" timeLoss="23.20" rerouteNo="0" devices="tripinfo_W_1_3" vType="car" speedFactor="0.97" vaporized=""/>
    <tripinfo id="W_2_0" depart="64.00" departLane="W_in_0" departPos="5.10" departSpeed="12.13" departDelay="0.25" arrival="121.00" arrivalLane="E_out_0" arrivalPos="242.80" arrivalSpeed="11.36" duration="57.00" routeLength="494.90" waitingTime="7.00" waitingCount="1" stopTime="0.00" timeLoss="15.34" rerouteNo="0" devices="tripinfo_W_2_0" vType="car" speedFactor="0.87" vaporized=""/>
    <tripinfo id="E_2_1" depart="83.00" departLane="E_in_0" departPos="5.10" departSpeed="13.90" departDelay="0.50" arrival="121.00" arrivalLane="W_out_0" arrivalPos="242.80" arrivalSpeed="12.89" duration="38.00" routeLength="494.90" waitingTime="0.00" waitingCount="0" stopTime="0.00" timeLoss="1.86" rerouteNo="0" devices="tripinfo_E_2_1" vType="car" speedFactor="1.17" vaporized=""/>
    <tripinfo id="W_2_1" depart="72.00" departLane="W_in_0" departPos="5.10" departSpeed="12.95" departDelay="0.75" arrival="122.00" arrivalLane="E_out_0" arrivalPos="242.80" arrivalSpeed="12.06" duration="50.00" routeLength="494.90" waitingTime="1.00" waitingCount="1" stopTime="0.00" timeLoss="11.68" rerouteNo="0" devices="tripinfo_W_2_1" vType="car" speedFactor="0.93" vaporized=""/>
    <tripinfo id="W_2_2" depart="79.00" departLane="W_in_0" departPos="5.10" departSpeed="13.90" departDelay="0.25" arrival="124.00" arrivalLane="E_out_0" arrivalPos="242.80" arrivalSpeed="13.00" duration="45.00" routeLength="494.90" waitingTime="0.00" waitingCount="0" stopTime="0.00" timeLoss="9.10" rerouteNo="0" devices="tripinfo_W_2_2" vType="car" speedFactor="1.15" vaporized=""/>
    <tripinfo id="W_2_3" depart="87.00" departLane="W_in_0" departPos="5.10" departSpeed="13.90" departDelay="0.75" arrival="126.00" arrivalLane="E_out_0" arrivalPos="242.80" arrivalSpeed="13.23" duration="39.00" routeLength="494.90" waitingTime="0.00" waitingCount="0" stopTime="0.00" timeLoss="2.88" rerouteNo="0" devices="tripinfo_W_2_3" vType="car" speedFactor="1.02" vaporized=""/>
    <tripinfo id="W_3_0" depart="94.00" departLane="W_in_0" departPos="5.10" departSpeed="13.90" departDelay="0.25" arrival="132.00" arrivalLane="E_out_0" arrivalPos="242.80" arrivalSpeed="12.70" duration="38.00" routeLength="494.90" waitingTime="0.00" waitingCount="0" stopTime="0.00" timeLoss="1.69" rerouteNo="0" devices="tripinfo_W_3_0" vType="car" speedFactor="1.10" vaporized=""/>
    <tripinfo id="E_3_0" depart="98.00" departLane="E_in_0" departPos="5.10" departSpeed="12.52" departDelay="0.50" arrival="140.00" arrivalLane="W_out_0" arrivalPos="242.80" arrivalSpeed="11.31" duration="42.00" routeLength="494.90" waitingTime="0.00" waitingCount="0" stopTime="0.00" timeLoss="2.03" rerouteNo="0" devices="tripinfo_E_3_0" vType="car" speedFactor="0.90" vaporized=""/>
    <tripinfo id="N_2_2" depart="71.00" departLane="N_in_0" departPos="5.10" departSpeed="13.90" departDelay="0.29" arrival="142.00" arrivalLane="S_out_0" arrivalPos="242.80" arrivalSpeed="13.01" duration="71.00" routeLength="494.90" waitingTime="30.00" waitingCount="1" stopTime="0.00" timeLoss="34.80" rerouteNo="0" devices="tripinfo_N_2_2" vType="car" speedFactor="1.13" vaporized=""/>
    <tripinfo id="S_3_0" depart="105.00" departLane="S_in_0" departPos="5.10" departSpeed="13.90" departDelay="0.00" arrival="143.00" arrivalLane="N_out_0" arrivalPos="242.80" arrivalSpeed="12.84" duration="38.00" routeLength="494.90" waitingTime="0.00" waitingCount="0" stopTime="0.00" timeLoss="2.05" rerouteNo="0" devices="tripinfo_S_3_0" vType="car" speedFactor="1.04" vaporized=""/>
    <tripinfo id="N_2_3" depart="75.00" departLane="N_in_0" departPos="5.10" departSpeed="13.90" departDelay="0.00" arrival="144.00" arrivalLane="S_out_0" arrivalPos="242.80" arrivalSpeed="12.89" duration="69.00" routeLength="494.90" waitingTime="24.00" waitingCount="1" stopTime="0.00" timeLoss="33.09" rerouteNo="0" devices="tripinfo_N_2_3" vType="car" speedFactor="1.18" vaporized=""/>
    <tripinfo id="N_2_4" depart="80.00" departLane="N_in_0" departPos="5.10" departSpeed="13.90" departDelay="0.71" arrival="146.00" arrivalLane="S_out_0" arrivalPos="242.80" arrivalSpeed="13.77" duration="66.00" routeLength="494.90" waitingTime="21.00" waitingCount="1" stopTime="0.00" timeLoss="29.97" rerouteNo="0" devices="tripinfo_N_2_4" vType="car" speedFactor="1.01" vaporized=""/>
    <tripinfo id="N_2_5" depart="84.00" departLane="N_in_0" departPos="5.10" departSpeed="13.83" departDelay="0.43" arrival="148.00" arrivalLane="S_out_0" arrivalPos="242.80" arrivalSpeed="13.12" duration="64.00" routeLength="494.90" waitingTime="20.00" waitingCount="1" stopTime="0.00" timeLoss="27.70" rerouteNo="0" devices="tripinfo_N_2_5" vType="car" speedFactor="0.99" vaporized=""/>
    <tripinfo id="N_2_6" depart="88.00" departLane="N_in_0" departPos="5.10" departSpeed="13.53" departDelay="0.14" arrival="150.00" arrivalLane="S_out_0" arrivalPos="242.80" arrivalSpeed="12.95" duration="62.00" routeLength="494.90" waitingTime="16.00" waitingCount="1" stopTime="0.00" timeLoss="25.25" rerouteNo="0" devices="tripinfo_N_2_6" vType="car" speedFactor="0.97" vaporized=""/>
    <tripinfo id="N_3_0" depart="93.00" departLane="N_in_0" departPos="5.10" departSpeed="13.90" departDelay="0.00" arrival="152.00" arrivalLane="S_out_0" arrivalPos="242.80" arrivalSpeed="13.85" duration="59.00" routeLength="494.90" waitingTime="13.00" waitingCount="1" stopTime="0.00" timeLoss="22.88" rerouteNo="0" devices="tripinfo_N_3_0" vType="car" speedFactor="1.18" vaporized=""/>
    <tripinfo id="N_3_1" depart="99.00" departLane="N_in_0" departPos="5.10" departSpeed="13.90" departDelay="0.00" arrival="154.00" arrivalLane="S_out_0" arrivalPos="242.80" arrivalSpeed="13.49" duration="55.00" routeLength="494.90" waitingTime="9.00" waitingCount="1" stopTime="0.00" timeLoss="18.73" rerouteNo="0" devices="tripinfo_N_3_1" vType="car" speedFactor="1.03" vaporized=""/>
    <tripinfo id="N_3_2" depart="105.00" departLane="N_in_0" departPos="5.10" departSpeed="13.90" departDelay="0.00" arrival="156.00" arrivalLane="S_out_0" arrivalPos="242.80" arrivalSpeed="13.69" duration="51.00" routeLength="494.90" waitingTime="5.00" waitingCount="1" stopTime="0.00" timeLoss="14.53" rerouteNo="0" devices="tripinfo_N_3_2" vType="car" speedFactor="1.09" vaporized=""/>
    <tripinfo id="N_3_3" depart="111.00" departLane="N_in_0" departPos="5.10" departSpeed="13.90" departDelay="0.00" arrival="157.00" arrivalLane="S_out_0" arrivalPos="242.80" arrivalSpeed="13.10" duration="46.00" routeLength="494.90" waitingTime="0.00" waitingCount="0" stopTime="0.00" timeLoss="10.40" rerouteNo="0" devices="tripinfo_N_3_3" vType="car" speedFactor="1.09" vaporized=""/>
    <tripinfo id="N_3_4" depart="117.00" departLane="N_in_0" departPos="5.10" departSpeed="12.19" departDelay="0.00" arrival="162.00" arrivalLane="S_out_0" arrivalPos="242.80" arrivalSpeed="11.35" duration="45.00" routeLength="494.90" waitingTime="0.00" waitingCount="0" stopTime="0.00" timeLoss="3.51" rerouteNo="0" devices="tripinfo_N_3_4" vType="car" speedFactor="0.88" vaporized=""/>
    <tripinfo id="N_4_0" depart="123.00" departLane="N_in_0" departPos="5.10" departSpeed="11.82" departDelay="0.00" arrival="168.00" arrivalLane="S_out_0" arrivalPos="242.80" arrivalSpeed="10.90" duration="45.00" routeLength="494.90" waitingTime="0.00" waitingCount="0" stopTime="0.00" timeLoss="2.31" rerouteNo="0" devices="tripinfo_N_4_0" vType="car" speedFactor="0.85" vaporized=""/>
    <tripinfo id="N_4_1" depart="129.00" departLane="N_in_0" departPos="5.10" departSpeed="13.90" departDelay="0.00" arrival="169.00" arrivalLane="S_out_0" arrivalPos="242.80" arrivalSpeed="13.67" duration="40.00" routeLength="494.90" waitingTime="0.00" waitingCount="0" stopTime="0.00" timeLoss="4.18" rerouteNo="0" devices="tripinfo_N_4_1" vType="car" speedFactor="1.02" vaporized=""/>
    <tripinfo id="E_3_1" depart="113.00" departLane="E_in_0" departPos="5.10" departSpeed="13.86" departDelay="0.50" arrival="172.00" arrivalLane="W_out_0" arrivalPos="242.80" arrivalSpeed="13.75" duration="59.00" routeLength="494.90" waitingTime="16.00" waitingCount="1" stopTime="0.00" timeLoss="22.92" rerouteNo="0" devices="tripinfo_E_3_1" vType="car" speedFactor="1.00" vaporized=""/>
    <tripinfo id="W_3_1" depart="102.00" departLane="W_in_0" departPos="5.10" departSpeed="13.30" departDelay="0.75" arrival="173.00" arrivalLane="E_out_0" arrivalPos="242.80" arrivalSpeed="12.11" duration="71.00" routeLength="494.90" waitingTime="27.00" waitingCount="1" stopTime="0.00" timeLoss="33.64" rerouteNo="0" devices="tripinfo_W_3_1" vType="car" speedFactor="0.96" vaporized=""/>
    <tripinfo id="E_4_0" depart="128.00" departLane="E_in_0" departPos="5.10" departSpeed="13.90" departDelay="0.50" arrival="174.00" arrivalLane="W_out_0" arrivalPos="242.80" arrivalSpeed="12.83" duration="46.00" routeLength="494.90" waitingTime="2.00" waitingCount="1" stopTime="0.00" timeLoss="9.81" rerouteNo="0" devices="tripinfo_E_4_0" vType="car" speedFactor="1.17" vaporized=""/>
    <tripinfo id="W_3_2" depart="109.00" departLane="W_in_0" departPos="5.10" departSpeed="13.90" departDelay="0.25" arrival="175.00" arrivalLane="E_out_0" arrivalPos="242.80" arrivalSpeed="13.41" duration="66.00" routeLength="494.90" waitingTime="22.00" waitingCount="1" stopTime="0.00" timeLoss="29.92" rerouteNo="0" devices="tripinfo_W_3_2" vType="car" speedFactor="1.04" vaporized=""/>
    <tripinfo id="W_3_3" depart="117.00" departLane="W_in_0" departPos="5.10" departSpeed="12.52" departDelay="0.75" arrival="178.00" arrivalLane="E_out_0" arrivalPos="242.80" arrivalSpeed="11.79" duration="61.00" routeLength="494.90" waitingTime="13.00" waitingCount="1" stopTime="0.00" timeLoss="21.04" rerouteNo="0" devices="tripinfo_W_3_3" vType="car" speedFactor="0.90" vaporized=""/>
    <tripinfo id="W_4_0" depart="124.00" departLane="W_in_0" departPos="5.10" departSpeed="11.88" departDelay="0.25" arrival="181.00" arrivalLane="E_out_0" arrivalPos="242.80" arrivalSpeed="11.84" duration="57.00" routeLength="494.90" waitingTime="6.00" waitingCount="1" stopTime="0.00" timeLoss="15.03" rerouteNo="0" devices="tripinfo_W_4_0" vType="car" speedFactor="0.85" vaporized=""/>
    <tripinfo id="E_4_1" depart="143.00" departLane="E_in_0" departPos="5.10" departSpeed="13.90" departDelay="0.50" arrival="181.00" arrivalLane="W_out_0" arrivalPos="242.80" arrivalSpeed="13.89" duration="38.00" routeLength="494.90" waitingTime="0.00" waitingCount="0" stopTime="0.00" timeLoss="1.58" rerouteNo="0" devices="tripinfo_E_4_1" vType="car" speedFactor="1.02" vaporized=""/>
    <tripinfo id="W_4_1" depart="132.00" departLane="W_in_0" departPos="5.10" departSpeed="13.90" departDelay="0.75" arrival="183.00" arrivalLane="E_out_0" arrivalPos="242.80" arrivalSpeed="13.83" duration="51.00" routeLength="494.90" waitingTime="3.00" waitingCount="1" stopTime="0.00" timeLoss="14.80" rerouteNo="0" devices="tripinfo_W_4_1" vType="car" speedFactor="1.10" vaporized=""/>
    <tripinfo id="W_4_2" depart="139.00" departLane="W_in_0" departPos="5.10" departSpeed="12.49" departDelay="0.25" arrival="185.00" arrivalLane="E_out_0" arrivalPos="242.80" arrivalSpeed="11.60" duration="46.00" routeLength="494.90" waitingTime="0.00" waitingCount="0" stopTime="0.00" timeLoss="5.82" rerouteNo="0" devices="tripinfo_W_4_2" vType="car" speedFactor="0.90" vaporized=""/>
    <tripinfo id="W_4_3" depart="147.00" departLane="W_in_0" departPos="5.10" departSpeed="13.48" departDelay="0.75" arrival="187.00" arrivalLane="E_out_0" arrivalPos="242.80" arrivalSpeed="12.75" duration="40.00" routeLength="494.90" waitingTime="0.00" waitingCount="0" stopTime="0.00" timeLoss="2.40" rerouteNo="0" devices="tripinfo_W_4_3" vType="car" speedFactor="0.97" vaporized=""/>
    <tripinfo id="W_5_0" depart="154.00" departLane="W_in_0" departPos="5.10" departSpeed="13.90" departDelay="0.25" arrival="192.00" arrivalLane="E_out_0" arrivalPos="242.80" arrivalSpeed="13.34" duration="38.00" routeLength="494.90" waitingTime="0.00" waitingCount="0" stopTime="0.00" timeLoss="1.70" rerouteNo="0" devices="tripinfo_W_5_0" vType="car" speedFactor="1.02" vaporized=""/>
    <tripinfo id="E_5_0" depart="158.00" departLane="E_in_0" departPos="5.10" departSpeed="13.03" departDelay="0.50" arrival="199.00" arrivalLane="W_out_0" arrivalPos="242.80" arrivalSpeed="12.93" duration="41.00" routeLength="494.90" waitingTime="0.00" waitingCount="0" stopTime="0.00" timeLoss="2.12" rerouteNo="0" devices="tripinfo_E_5_0" vType="car" speedFactor="0.94" vaporized=""/>
    <tripinfo id="N_4_2" depart="135.00" departLane="N_in_0" departPos="5.10" departSpeed="13.90" departDelay="0.00" arrival="202.00" arrivalLane="S_out_0" arrivalPos="242.80" arrivalSpeed="13.72" duration="67.00" routeLength="494.90" waitingTime="22.00" waitingCount="1" stopTime="0.00" timeLoss="30.59" rerouteNo="0" devices="tripinfo_N_4_2" vType="car" speedFactor="1.00" vaporized=""/>
    <tripinfo id="S_4_0" depart="135.00" departLane="S_in_0" departPos="5.10" departSpeed="13.84" departDelay="0.00" arrival="202.00" arrivalLane="N_out_0" arrivalPos="242.80" arrivalSpeed="13.00" duration="67.00" routeLength="494.90" waitingTime="23.00" waitingCount="1" stopTime="0.00" timeLoss="30.83" rerouteNo="0" devices="tripinfo_S_4_0" vType="car" speedFactor="1.00" vaporized=""/>
    <tripinfo id="N_4_3" depart="141.00" departLane="N_in_0" departPos="5.10" departSpeed="13.90" departDelay="0.00" arrival="204.00" arrivalLane="S_out_0" arrivalPos="242.80" arrivalSpeed="13.57" duration="63.00" routeLength="494.90" waitingTime="19.00" waitingCount="1" stopTime="0.00" timeLoss="26.81" rerouteNo="0" devices="tripinfo_N_4_3" vType="car" speedFactor="1.14" vaporized=""/>
    <tripinfo id="S_5_0" depart="165.00" departLane="S_in_0" departPos="5.10" departSpeed="13.90" departDelay="0.00" arrival="204.00" arrivalLane="N_out_0" arrivalPos="242.80" arrivalSpeed="13.50" duration="39.00" routeLength="494.90" waitingTime="0.00" waitingCount="0" stopTime="0.00" timeLoss="2.73" rerouteNo="0" devices="tripinfo_S_5_0" vType="car" speedFactor="1.04" vaporized=""/>
    <tripinfo id="N_4_4" depart="147.00" departLane="N_in_0" departPos="5.10" departSpeed="13.90" departDelay="0.00" arrival="206.00" arrivalLane="S_out_0" arrivalPos="242.80" arrivalSpeed="13.63" duration="59.00" routeLength="494.90" waitingTime="14.00" waitingCount="1" stopTime="0.00" timeLoss="22.87" rerouteNo="0" devices="tripinfo_N_4_4" vType="car" speedFactor="1.08" vaporized=""/>
    <tripinfo id="N_5_0" depart="153.00" departLane="N_in_0" departPos="5.10" departSpeed="13.90" departDelay="0.86" arrival="208.00" arrivalLane="S_out_0" arrivalPos="242.80" arrivalSpeed="12.63" duration="55.00" routeLength="494.90" waitingTime="10.00" waitingCount="1" stopTime="0.00" timeLoss="18.66" rerouteNo="0" devices="tripinfo_N_5_0" vType="car" speedFactor="1.12" vaporized=""/>
    <tripinfo id="N_5_1" depart="157.00" departLane="N_in_0" departPos="5.10" departSpeed="13.72" departDelay="0.57" arrival="210.00" arrivalLane="S_out_0" arrivalPos="242.80" arrivalSpeed="12.76" duration="53.00" routeLength="494.90" waitingTime="8.00" waitingCount="1" stopTime="0.00" timeLoss="16.08" rerouteNo="0" devices="tripinfo_N_5_1" vType="car" speedFactor="0.99" vaporized=""/>
    <tripinfo id="N_5_2" depart="161.00" departLane="N_in_0" departPos="5.10" departSpeed="12.26" departDelay="0.29" arrival="214.00" arrivalLane="S_out_0" arrivalPos="242.80" arrivalSpeed="11.56" duration="53.00" routeLength="494.90" waitingTime="3.00" waitingCount="1" stopTime="0.00" timeLoss="11.79" rerouteNo="0" devices="tripinfo_N_5_2" vType="car" speedFactor="0.88" vaporized=""/>
    <tripinfo id="N_5_3" depart="165.00" departLane="N_in_0" departPos="5.10" departSpeed="12.71" departDelay="0.00" arrival="215.00" arrivalLane="S_out_0" arrivalPos="242.80" arrivalSpeed="12.50" duration="50.00" routeLength="494.90" waitingTime="2.00" waitingCount="1" stopTime="0.00" timeLoss="10.87" rerouteNo="0" devices="tripinfo_N_5_3" vType="car" speedFactor="0.91" vaporized=""/>
    <tripinfo id="N_5_4" depart="170.00" departLane="N_in_0" departPos="5.10" departSpeed="13.90" departDelay="0.71" arrival="217.00" arrivalLane="S_out_0" arrivalPos="242.80" arrivalSpeed="12.67" duration="47.00" routeLength="494.90" waitingTime="0.00" waitingCount="0" stopTime="0.00" timeLoss="10.90" rerouteNo="0" devices="tripinfo_N_5_4" vType="car" speedFactor="1.02" vaporized=""/>
    <tripinfo id="N_5_5" depart="174.00" departLane="N_in_0" departPos="5.10" departSpeed="13.07" departDelay="0.43" arrival="219.00" arrivalLane="S_out_0" arrivalPos="242.80" arrivalSpeed="12.95" duration="45.00" routeLength="494.90" waitingTime="0.00" waitingCount="0" stopTime="0.00" timeLoss="6.50" rerouteNo="0" devices="tripinfo_N_5_5" vType="car" speedFactor="0.94" vaporized=""/>
    <tripinfo id="N_5_6" depart="178.00" departLane="N_in_0" departPos="5.10" departSpeed="13.28" departDelay="0.14" arrival="221.00" arrivalLane="S_out_0" arrivalPos="242.80" arrivalSpeed="12.11" duration="43.00" routeLength="494.90" waitingTime="0.00" waitingCount="0" stopTime="0.00" timeLoss="4.99" rerouteNo="0" devices="tripinfo_N_5_6" vType="car" speedFactor="0.96" vaporized=""/>
    <tripinfo id="N_6_0" depart="183.00" departLane="N_in_0" departPos="5.10" departSpeed="13.69" departDelay="0.86" arrival="222.00" arrivalLane="S_out_0" arrivalPos="242.80" arrivalSpeed="12.54" duration="39.00" routeLength="494.90" waitingTime="0.00" waitingCount="0" stopTime="0.00" timeLoss="2.81" rerouteNo="0" devices="tripinfo_N_6_0" vType="car" speedFactor="0.98" vaporized=""/>
    <tripinfo id="N_6_1" depart="187.00" departLane="N_in_0" departPos="5.10" departSpeed="13.65" departDelay="0.57" arrival="226.00" arrivalLane="S_out_0" arrivalPos="242.80" arrivalSpeed="12.63" duration="39.00" routeLength="494.90" waitingTime="0.00" waitingCount="0" stopTime="0.00" timeLoss="1.92" rerouteNo="0" devices="tripinfo_N_6_1" vType="car" speedFactor="0.98" vaporized=""/>
    <tripinfo id="E_5_1" depart="173.00" departLane="E_in_0" departPos="5.10" departSpeed="13.52" departDelay="0.50" arrival="233.00" arrivalLane="W_out_0" arrivalPos="242.80" arrivalSpeed="12.64" duration="60.00" routeLength="494.90" waitingTime="15.00" waitingCount="1" stopTime="0.00" timeLoss="22.56" rerouteNo="0" devices="tripinfo_E_5_1" vType="car" speedFactor="0.97" vaporized=""/>