<?xml version="1.0" encoding="UTF-8"?>

<!-- generated on 2026-06-06 17:24:52 by Eclipse SUMO sumo Version 1.20.0
<configuration xmlns:xsi="http://www.w3.org/2001/XMLSchema-instance" xsi:noNamespaceSchemaLocation="http://sumo.dlr.de/xsd/sumoConfiguration.xsd">

    <input>
        <net-file value="/Users/mouadassargual/Desktop/Thesis Mouad/sumo/simple_intersection/simple.net.xml"/>
        <route-files value="/Users/mouadassargual/Desktop/Thesis Mouad/sumo/simple_intersection/routes.rou.xml"/>
    </input>

    <output>
        <summary-output value="/Users/mouadassargual/Desktop/Thesis Mouad/sumo/simple_intersection/results/mdp_native_summary.xml"/>
        <tripinfo-output value="/Users/mouadassargual/Desktop/Thesis Mouad/sumo/simple_intersection/results/mdp_native_tripinfo.xml"/>
    </output>

    <time>
        <begin value="0"/>
        <end value="600"/>
    </time>

    <report>
        <duration-log.disable value="true"/>
        <no-step-log value="true"/>
    </report>

    <traci_server>
        <remote-port value="8813"/>
    </traci_server>

</configuration>
-->

<tripinfos xmlns:xsi="http://www.w3.org/2001/XMLSchema-instance" xsi:noNamespaceSchemaLocation="http://sumo.dlr.de/xsd/tripinfo_file.xsd">
    <tripinfo id="N_0_0" depart="3.00" departLane="N_in_0" departPos="5.10" departSpeed="13.90" departDelay="0.00" arrival="41.00" arrivalLane="S_out_0" arrivalPos="242.80" arrivalSpeed="13.59" duration="38.00" routeLength="494.90" waitingTime="0.00" waitingCount="0" stopTime="0.00" timeLoss="1.66" rerouteNo="0" devices="tripinfo_N_0_0" vType="car" speedFactor="1.06" vaporized=""/>
    <tripinfo id="N_0_1" depart="9.00" departLane="N_in_0" departPos="5.10" departSpeed="13.90" departDelay="0.00" arrival="47.00" arrivalLane="S_out_0" arrivalPos="242.80" arrivalSpeed="13.31" duration="38.00" routeLength="494.90" waitingTime="0.00" waitingCount="0" stopTime="0.00" timeLoss="1.94" rerouteNo="0" devices="tripinfo_N_0_1" vType="car" speedFactor="1.01" vaporized=""/>
    <tripinfo id="N_0_2" depart="15.00" departLane="N_in_0" departPos="5.10" departSpeed="13.90" departDelay="0.00" arrival="53.00" arrivalLane="S_out_0" arrivalPos="242.80" arrivalSpeed="12.89" duration="38.00" routeLength="494.90" waitingTime="0.00" waitingCount="0" stopTime="0.00" timeLoss="1.91" rerouteNo="0" devices="tripinfo_N_0_2" vType="car" speedFactor="1.03" vaporized=""/>
    <tripinfo id="E_0_0" depart="15.00" departLane="E_in_0" departPos="5.10" departSpeed="13.90" departDelay="0.00" arrival="55.00" arrivalLane="W_out_0" arrivalPos="242.80" arrivalSpeed="13.62" duration="40.00" routeLength="494.90" waitingTime="0.00" waitingCount="0" stopTime="0.00" timeLoss="3.71" rerouteNo="0" devices="tripinfo_E_0_0" vType="car" speedFactor="1.05" vaporized=""/>
    <tripinfo id="W_0_0" depart="4.00" departLane="W_in_0" departPos="5.10" departSpeed="13.04" departDelay="0.25" arrival="58.00" arrivalLane="E_out_0" arrivalPos="242.80" arrivalSpeed="11.91" duration="54.00" routeLength="494.90" waitingTime="8.00" waitingCount="1" stopTime="0.00" timeLoss="15.54" rerouteNo="0" devices="tripinfo_W_0_0" vType="car" speedFactor="0.94" vaporized=""/>
    <tripinfo id="W_0_1" depart="12.00" departLane="W_in_0" departPos="5.10" departSpeed="13.90" departDelay="0.75" arrival="60.00" arrivalLane="E_out_0" arrivalPos="242.80" arrivalSpeed="13.04" duration="48.00" routeLength="494.90" waitingTime="3.00" waitingCount="1" stopTime="0.00" timeLoss="11.55" rerouteNo="0" devices="tripinfo_W_0_1" vType="car" speedFactor="1.08" vaporized=""/>
    <tripinfo id="W_0_2" depart="19.00" departLane="W_in_0" departPos="5.10" departSpeed="12.32" departDelay="0.25" arrival="63.00" arrivalLane="E_out_0" arrivalPos="242.80" arrivalSpeed="11.72" duration="44.00" routeLength="494.90" waitingTime="0.00" waitingCount="0" stopTime="0.00" timeLoss="3.18" rerouteNo="0" devices="tripinfo_W_0_2" vType="car" speedFactor="0.89" vaporized=""/>
    <tripinfo id="W_0_3" depart="27.00" departLane="W_in_0" departPos="5.10" departSpeed="11.91" departDelay="0.75" arrival="72.00" arrivalLane="E_out_0" arrivalPos="242.80" arrivalSpeed="10.92" duration="45.00" routeLength="494.90" waitingTime="0.00" waitingCount="0" stopTime="0.00" timeLoss="2.85" rerouteNo="0" devices="tripinfo_W_0_3" vType="car" speedFactor="0.86" vaporized=""/>
    <tripinfo id="W_1_0" depart="34.00" departLane="W_in_0" departPos="5.10" departSpeed="13.90" departDelay="0.25" arrival="74.00" arrivalLane="E_out_0" arrivalPos="242.80" arrivalSpeed="13.52" duration="40.00" routeLength="494.90" waitingTime="0.00" waitingCount="0" stopTime="0.00" timeLoss="3.51" rerouteNo="0" devices="tripinfo_W_1_0" vType="car" speedFactor="1.05" vaporized=""/>
    <tripinfo id="E_1_0" depart="38.00" departLane="E_in_0" departPos="5.10" departSpeed="13.78" departDelay="0.50" arrival="76.00" arrivalLane="W_out_0" arrivalPos="242.80" arrivalSpeed="13.45" duration="38.00" routeLength="494.90" waitingTime="0.00" waitingCount="0" stopTime="0.00" timeLoss="1.82" rerouteNo="0" devices="tripinfo_E_1_0" vType="car" speedFactor="0.99" vaporized=""/>
    <tripinfo id="W_1_1" depart="42.00" departLane="W_in_0" departPos="5.10" departSpeed="12.88" departDelay="0.75" arrival="83.00" arrivalLane="E_out_0" arrivalPos="242.80" arrivalSpeed="12.39" duration="41.00" routeLength="494.90" waitingTime="0.00" waitingCount="0" stopTime="0.00" timeLoss="2.06" rerouteNo="0" devices="tripinfo_W_1_1" vType="car" speedFactor="0.93" vaporized=""/>
    <tripinfo id="N_0_3" depart="21.00" departLane="N_in_0" departPos="5.10" departSpeed="13.04" departDelay="0.00" arrival="88.00" arrivalLane="S_out_0" arrivalPos="242.80" arrivalSpeed="11.84" duration="67.00" routeLength="494.90" waitingTime="20.00" waitingCount="1" stopTime="0.00" timeLoss="28.35" rerouteNo="0" devices="tripinfo_N_0_3" vType="car" speedFactor="0.94" vaporized=""/>
    <tripinfo id="N_0_4" depart="27.00" departLane="N_in_0" departPos="5.10" departSpeed="13.90" departDelay="0.00" arrival="89.00" arrivalLane="S_out_0" arrivalPos="242.80" arrivalSpeed="13.81" duration="62.00" routeLength="494.90" waitingTime="18.00" waitingCount="1" stopTime="0.00" timeLoss="26.27" rerouteNo="0" devices="tripinfo_N_0_4" vType="car" speedFactor="1.09" vaporized=""/>
    <tripinfo id="S_0_0" depart="15.00" departLane="S_in_0" departPos="5.10" departSpeed="11.55" departDelay="0.00" arrival="91.00" arrivalLane="N_out_0" arrivalPos="242.80" arrivalSpeed="10.77" duration="76.00" routeLength="494.90" waitingTime="26.00" waitingCount="1" stopTime="0.00" timeLoss="32.26" rerouteNo="0" devices="tripinfo_S_0_0" vType="car" speedFactor="0.83" vaporized=""/>
    <tripinfo id="N_1_0" depart="33.00" departLane="N_in_0" departPos="5.10" departSpeed="13.90" departDelay="0.50" arrival="91.00" arrivalLane="S_out_0" arrivalPos="242.80" arrivalSpeed="13.15" duration="58.00" routeLength="494.90" waitingTime="13.00" waitingCount="1" stopTime="0.00" timeLoss="21.97" rerouteNo="0" devices="tripinfo_N_1_0" vType="car" speedFactor="1.03" vaporized=""/>
    <tripinfo id="S_1_0" depart="45.00" departLane="S_in_0" departPos="5.10" departSpeed="13.09" departDelay="0.00" arrival="92.00" arrivalLane="N_out_0" arrivalPos="242.80" arrivalSpeed="12.31" duration="47.00" routeLength="494.90" waitingTime="0.00" waitingCount="0" stopTime="0.00" timeLoss="8.99" rerouteNo="0" devices="tripinfo_S_1_0" vType="car" speedFactor="0.94" vaporized=""/>
    <tripinfo id="N_1_1" depart="38.00" departLane="N_in_0" departPos="5.10" departSpeed="13.90" departDelay="0.50" arrival="93.00" arrivalLane="S_out_0" arrivalPos="242.80" arrivalSpeed="12.94" duration="55.00" routeLength="494.90" waitingTime="11.00" waitingCount="1" stopTime="0.00" timeLoss="18.74" rerouteNo="0" devices="tripinfo_N_1_1" vType="car" speedFactor="1.12" vaporized=""/>
    <tripinfo id="N_1_2" depart="43.00" departLane="N_in_0" departPos="5.10" departSpeed="12.21" departDelay="0.50" arrival="97.00" arrivalLane="S_out_0" arrivalPos="242.80" arrivalSpeed="11.28" duration="54.00" routeLength="494.90" waitingTime="4.00" waitingCount="1" stopTime="0.00" timeLoss="12.94" rerouteNo="0" devices="tripinfo_N_1_2" vType="car" speedFactor="0.88" vaporized=""/>
    <tripinfo id="N_1_3" depart="48.00" departLane="N_in_0" departPos="5.10" departSpeed="13.01" departDelay="0.50" arrival="99.00" arrivalLane="S_out_0" arrivalPos="242.80" arrivalSpeed="12.22" duration="51.00" routeLength="494.90" waitingTime="2.00" waitingCount="1" stopTime="0.00" timeLoss="12.25" rerouteNo="0" devices="tripinfo_N_1_3" vType="car" speedFactor="0.94" vaporized=""/>
    <tripinfo id="N_1_4" depart="53.00" departLane="N_in_0" departPos="5.10" departSpeed="13.90" departDelay="0.50" arrival="100.00" arrivalLane="S_out_0" arrivalPos="242.80" arrivalSpeed="13.62" duration="47.00" routeLength="494.90" waitingTime="0.00" waitingCount="0" stopTime="0.00" timeLoss="11.37" rerouteNo="0" devices="tripinfo_N_1_4" vType="car" speedFactor="1.02" vaporized=""/>
    <tripinfo id="N_1_5" depart="58.00" departLane="N_in_0" departPos="5.10" departSpeed="12.37" departDelay="0.50" arrival="103.00" arrivalLane="S_out_0" arrivalPos="242.80" arrivalSpeed="11.35" duration="45.00" routeLength="494.90" waitingTime="0.00" waitingCount="0" stopTime="0.00" timeLoss="4.07" rerouteNo="0" devices="tripinfo_N_1_5" vType="car" speedFactor="0.89" vaporized=""/>
    <tripinfo id="N_2_0" depart="63.00" departLane="N_in_0" departPos="5.10" departSpeed="11.48" departDelay="0.86" arrival="109.00" arrivalLane="S_out_0" arrivalPos="242.80" arrivalSpeed="10.79" duration="46.00" routeLength="494.90" waitingTime="0.00" waitingCount="0" stopTime="0.00" timeLoss="2.43" rerouteNo="0" devices="tripinfo_N_2_0" vType="car" speedFactor="0.83" vaporized=""/>
    <tripinfo id="N_2_1" depart="67.00" departLane="N_in_0" departPos="5.10" departSpeed="12.75" departDelay="0.57" arrival="111.00" arrivalLane="S_out_0" arrivalPos="242.80" arrivalSpeed="11.79" duration="44.00" routeLength="494.90" waitingTime="0.00" waitingCount="0" stopTime="0.00" timeLoss="4.51" rerouteNo="0" devices="tripinfo_N_2_1" vType="car" speedFactor="0.92" vaporized=""/>
    <tripinfo id="N_2_2" depart="71.00" departLane="N_in_0" departPos="5.10" departSpeed="13.90" departDelay="0.29" arrival="112.00" arrivalLane="S_out_0" arrivalPos="242.80" arrivalSpeed="12.86" duration="41.00" routeLength="494.90" waitingTime="0.00" waitingCount="0" stopTime="0.00" timeLoss="5.39" rerouteNo="0" devices="tripinfo_N_2_2" vType="car" speedFactor="1.13" vaporized=""/>
    <tripinfo id="N_2_3" depart="75.00" departLane="N_in_0" departPos="5.10" departSpeed="13.90" departDelay="0.00" arrival="114.00" arrivalLane="S_out_0" arrivalPos="242.80" arrivalSpeed="12.87" duration="39.00" routeLength="494.90" waitingTime="0.00" waitingCount="0" stopTime="0.00" timeLoss="3.17" rerouteNo="0" devices="tripinfo_N_2_3" vType="car" speedFactor="1.18" vaporized=""/>
    <tripinfo id="N_2_4" depart="80.00" departLane="N_in_0" departPos="5.10" departSpeed="13.90" departDelay="0.71" arrival="118.00" arrivalLane="S_out_0" arrivalPos="242.80" arrivalSpeed="12.97" duration="38.00" routeLength="494.90" waitingTime="0.00" waitingCount="0" stopTime="0.00" timeLoss="2.01" rerouteNo="0" devices="tripinfo_N_2_4" vType="car" speedFactor="1.01" vaporized=""/>
    <tripinfo id="N_2_5" depart="84.00" departLane="N_in_0" departPos="5.10" departSpeed="13.83" departDelay="0.43" arrival="122.00" arrivalLane="S_out_0" arrivalPos="242.80" arrivalSpeed="13.67" duration="38.00" routeLength="494.90" waitingTime="0.00" waitingCount="0" stopTime="0.00" timeLoss="1.81" rerouteNo="0" devices="tripinfo_N_2_5" vType="car" speedFactor="0.99" vaporized=""/>
    <tripinfo id="N_2_6" depart="88.00" departLane="N_in_0" departPos="5.10" departSpeed="13.53" departDelay="0.14" arrival="127.00" arrivalLane="S_out_0" arrivalPos="242.80" arrivalSpeed="13.12" duration="39.00" routeLength="494.90" waitingTime="0.00" waitingCount="0" stopTime="0.00" timeLoss="1.73" rerouteNo="0" devices="tripinfo_N_2_6" vType="car" speedFactor="0.97" vaporized=""/>
    <tripinfo id="W_1_2" depart="49.00" departLane="W_in_0" departPos="5.10" departSpeed="13.90" departDelay="0.25" arrival="132.00" arrivalLane="E_out_0" arrivalPos="242.80" arrivalSpeed="13.61" duration="83.00" routeLength="494.90" waitingTime="39.00" waitingCount="1" stopTime="0.00" timeLoss="47.05" rerouteNo="0" devices="tripinfo_W_1_2" vType="car" speedFactor="1.16" vaporized=""/>
    <tripinfo id="E_1_1" depart="53.00" departLane="E_in_0" departPos="5.10" departSpeed="13.90" departDelay="0.50" arrival="132.00" arrivalLane="W_out_0" arrivalPos="242.80" arrivalSpeed="13.82" duration="79.00" routeLength="494.90" waitingTime="36.00" waitingCount="1" stopTime="0.00" timeLoss="43.13" rerouteNo="0" devices="tripinfo_E_1_1" vType="car" speedFactor="1.01" vaporized=""/>
    <tripinfo id="W_1_3" depart="57.00" departLane="W_in_0" departPos="5.10" departSpeed="13.55" departDelay="0.75" arrival="134.00" arrivalLane="E_out_0" arrivalPos="242.80" arrivalSpeed="12.69" duration="77.00" routeLength="494.90" waitingTime="32.00" waitingCount="1" stopTime="0.00" timeLoss="40.15" rerouteNo="0" devices="tripinfo_W_1_3" vType="car" speedFactor="0.97" vaporized=""/>
    <tripinfo id="E_2_0" depart="68.00" departLane="E_in_0" departPos="5.10" departSpeed="13.19" departDelay="0.50" arrival="135.00" arrivalLane="W_out_0" arrivalPos="242.80" arrivalSpeed="12.45" duration="67.00" routeLength="494.90" waitingTime="22.00" waitingCount="1" stopTime="0.00" timeLoss="29.18" rerouteNo="0" devices="tripinfo_E_2_0" vType="car" speedFactor="0.95" vaporized=""/>
    <tripinfo id="E_2_1" depart="83.00" departLane="E_in_0" departPos="5.10" departSpeed="13.90" departDelay="0.50" arrival="137.00" arrivalLane="W_out_0" arrivalPos="242.80" arrivalSpeed="13.48" duration="54.00" routeLength="494.90" waitingTime="8.00" waitingCount="1" stopTime="0.00" timeLoss="17.82" rerouteNo="0" devices="tripinfo_E_2_1" vType="car" speedFactor="1.17" vaporized=""/>
    <tripinfo id="W_2_0" depart="64.00" departLane="W_in_0" departPos="5.10" departSpeed="12.13" departDelay="0.25" arrival="138.00" arrivalLane="E_out_0" arrivalPos="242.80" arrivalSpeed="11.93" duration="74.00" routeLength="494.90" waitingTime="25.00" waitingCount="1" stopTime="0.00" timeLoss="33.14" rerouteNo="0" devices="tripinfo_W_2_0" vType="car" speedFactor="0.87" vaporized=""/>
    <tripinfo id="W_2_1" depart="72.00" departLane="W_in_0" departPos="5.10" departSpeed="12.95" departDelay="0.75" arrival="140.00" arrivalLane="E_out_0" arrivalPos="242.80" arrivalSpeed="12.03" duration="68.00" routeLength="494.90" waitingTime="19.00" waitingCount="1" stopTime="0.00" timeLoss="29.52" rerouteNo="0" devices="tripinfo_W_2_1" vType="car" speedFactor="0.93" vaporized=""/>
    <tripinfo id="E_3_0" depart="98.00" departLane="E_in_0" departPos="5.10" departSpeed="12.52" departDelay="0.50" arrival="140.00" arrivalLane="W_out_0" arrivalPos="242.80" arrivalSpeed="11.64" duration="42.00" routeLength="494.90" waitingTime="0.00" waitingCount="0" stopTime="0.00" timeLoss="2.44" rerouteNo="0" devices="tripinfo_E_3_0" vType="car" speedFactor="0.90" vaporized=""/>
    <tripinfo id="W_2_2" depart="79.00" departLane="W_in_0" departPos="5.10" departSpeed="13.90" departDelay="0.25" arrival="142.00" arrivalLane="E_out_0" arrivalPos="242.80" arrivalSpeed="13.72" duration="63.00" routeLength="494.90" waitingTime="15.00" waitingCount="1" stopTime="0.00" timeLoss="26.80" rerouteNo="0" devices="tripinfo_W_2_2" vType="car" speedFactor="1.15" vaporized=""/>
    <tripinfo id="W_2_3" depart="87.00" departLane="W_in_0" departPos="5.10" departSpeed="13.90" departDelay="0.75" arrival="144.00" arrivalLane="E_out_0" arrivalPos="242.80" arrivalSpeed="13.20" duration="57.00" routeLength="494.90" waitingTime="10.00" waitingCount="1" stopTime="0.00" timeLoss="20.59" rerouteNo="0" devices="tripinfo_W_2_3" vType="car" speedFactor="1.02" vaporized=""/>
    <tripinfo id="W_3_0" depart="94.00" departLane="W_in_0" departPos="5.10" departSpeed="13.90" departDelay="0.25" arrival="145.00" arrivalLane="E_out_0" arrivalPos="242.80" arrivalSpeed="12.65" duration="51.00" routeLength="494.90" waitingTime="4.00" waitingCount="1" stopTime="0.00" timeLoss="15.32" rerouteNo="0" devices="tripinfo_W_3_0" vType="car" speedFactor="1.10" vaporized=""/>
    <tripinfo id="W_3_1" depart="102.00" departLane="W_in_0" departPos="5.10" departSpeed="13.30" departDelay="0.75" arrival="147.00" arrivalLane="E_out_0" arrivalPos="242.80" arrivalSpeed="12.79" duration="45.00" routeLength="494.90" waitingTime="0.00" waitingCount="0" stopTime="0.00" timeLoss="7.73" rerouteNo="0" devices="tripinfo_W_3_1" vType="car" speedFactor="0.96" vaporized=""/>
    <tripinfo id="W_3_2" depart="109.00" departLane="W_in_0" departPos="5.10" departSpeed="13.90" departDelay="0.25" arrival="149.00" arrivalLane="E_out_0" arrivalPos="242.80" arrivalSpeed="13.61" duration="40.00" routeLength="494.90" waitingTime="0.00" waitingCount="0" stopTime="0.00" timeLoss="3.99" rerouteNo="0" devices="tripinfo_W_3_2" vType="car" speedFactor="1.04" vaporized=""/>
    <tripinfo id="E_3_1" depart="113.00" departLane="E_in_0" departPos="5.10" departSpeed="13.86" departDelay="0.50" arrival="151.00" arrivalLane="W_out_0" arrivalPos="242.80" arrivalSpeed="13.58" duration="38.00" routeLength="494.90" waitingTime="0.00" waitingCount="0" stopTime="0.00" timeLoss="1.76" rerouteNo="0" devices="tripinfo_E_3_1" vType="car" speedFactor="1.00" vaporized=""/>
    <tripinfo id="W_3_3" depart="117.00" departLane="W_in_0" departPos="5.10" departSpeed="12.52" departDelay="0.75" arrival="159.00" arrivalLane="E_out_0" arrivalPos="242.80" arrivalSpeed="12.47" duration="42.00" routeLength="494.90" waitingTime="0.00" waitingCount="0" stopTime="0.00" timeLoss="2.32" rerouteNo="0" devices="tripinfo_W_3_3" vType="car" speedFactor="0.90" vaporized=""/>
    <tripinfo id="E_4_0" depart="128.00" departLane="E_in_0" departPos="5.10" departSpeed="13.90" departDelay="0.50" arrival="166.00" arrivalLane="W_out_0" arrivalPos="242.80" arrivalSpeed="12.85" duration="38.00" routeLength="494.90" waitingTime="0.00" waitingCount="0" stopTime="0.00" timeLoss="1.72" rerouteNo="0" devices="tripinfo_E_4_0" vType="car" speedFactor="1.17" vaporized=""/>
    <tripinfo id="W_4_0" depart="124.00" departLane="W_in_0" departPos="5.10" departSpeed="11.88" departDelay="0.25" arrival="168.00" arrivalLane="E_out_0" arrivalPos="242.80" arrivalSpeed="11.36" duration="44.00" routeLength="494.90" waitingTime="0.00" waitingCount="0" stopTime="0.00" timeLoss="2.34" rerouteNo="0" devices="tripinfo_W_4_0" vType="car" speedFactor="0.85" vaporized=""/>
    <tripinfo id="W_4_1" depart="132.00" departLane="W_in_0" departPos="5.10" departSpeed="13.90" departDelay="0.75" arrival="170.00" arrivalLane="E_out_0" arrivalPos="242.80" arrivalSpeed="13.15" duration="38.00" routeLength="494.90" waitingTime="0.00" waitingCount="0" stopTime="0.00" timeLoss="2.12" rerouteNo="0" devices="tripinfo_W_4_1" vType="car" speedFactor="1.10" vaporized=""/>
    <tripinfo id="N_3_0" depart="93.00" departLane="N_in_0" departPos="5.10" departSpeed="13.90" departDelay="0.00" arrival="177.00" arrivalLane="S_out_0" arrivalPos="242.80" arrivalSpeed="13.49" duration="84.00" routeLength="494.90" waitingTime="39.00" waitingCount="1" stopTime="0.00" timeLoss="47.98" rerouteNo="0" devices="tripinfo_N_3_0" vType="car" speedFactor="1.18" vaporized=""/>
    <tripinfo id="S_3_0" depart="105.00" departLane="S_in_0" departPos="5.10" departSpeed="13.90" departDelay="0.00" arrival="177.00" arrivalLane="N_out_0" arrivalPos="242.80" arrivalSpeed="13.34" duration="72.00" routeLength="494.90" waitingTime="29.00" waitingCount="1" stopTime="0.00" timeLoss="36.26" rerouteNo="0" devices="tripinfo_S_3_0" vType="car" speedFactor="1.04" vaporized=""/>
    <tripinfo id="N_3_1" depart="99.00" departLane="N_in_0" departPos="5.10" departSpeed="13.90" departDelay="0.00" arrival="179.00" arrivalLane="S_out_0" arrivalPos="242.80" arrivalSpeed="13.88" duration="80.00" routeLength="494.90" waitingTime="35.00" waitingCount="1" stopTime="0.00" timeLoss="43.87" rerouteNo="0" devices="tripinfo_N_3_1" vType="car" speedFactor="1.03" vaporized=""/>
    <tripinfo id="S_4_0" depart="135.00" departLane="S_in_0" departPos="5.10" departSpeed="13.84" departDelay="0.00" arrival="179.00" arrivalLane="N_out_0" arrivalPos="242.80" arrivalSpeed="13.32" duration="44.00" routeLength="494.90" waitingTime="0.00" waitingCount="0" stopTime="0.00" timeLoss="7.94" rerouteNo="0" devices="tripinfo_S_4_0" vType="car" speedFactor="1.00" vaporized=""/>
    <tripinfo id="N_3_2" depart="105.00" departLane="N_in_0" departPos="5.10" departSpeed="13.90" departDelay="0.00" arrival="181.00" arrivalLane="S_out_0" arrivalPos="242.80" arrivalSpeed="12.67" duration="76.00" routeLength="494.90" waitingTime="31.00" waitingCount="1" stopTime="0.00" timeLoss="39.75" rerouteNo="0" devices="tripinfo_N_3_2" vType="car" speedFactor="1.09" vaporized=""/>
    <tripinfo id="N_3_3" depart="111.00" departLane="N_in_0" departPos="5.10" departSpeed="13.90" departDelay="0.00" arrival="183.00" arrivalLane="S_out_0" arrivalPos="242.80" arrivalSpeed="13.22" duration="72.00" routeLength="494.90" waitingTime="27.00" waitingCount="1" stopTime="0.00" timeLoss="35.57" rerouteNo="0" devices="tripinfo_N_3_3" vType="car" speedFactor="1.09" vaporized=""/>
    <tripinfo id="N_3_4" depart="117.00" departLane="N_in_0" departPos="5.10" departSpeed="12.19" departDelay="0.00" arrival="187.00" arrivalLane="S_out_0" arrivalPos="242.80" arrivalSpeed="11.52" duration="70.00" routeLength="494.90" waitingTime="21.00" waitingCount="1" stopTime="0.00" timeLoss="28.73" rerouteNo="0" devices="tripinfo_N_3_4" vType="car" speedFactor="0.88" vaporized=""/>
    <tripinfo id="N_4_0" depart="123.00" departLane="N_in_0" departPos="5.10" departSpeed="11.82" departDelay="0.00" arrival="190.00" arrivalLane="S_out_0" arrivalPos="242.80" arrivalSpeed="11.14" duration="67.00" routeLength="494.90" waitingTime="15.00" waitingCount="1" stopTime="0.00" timeLoss="24.22" rerouteNo="0" devices="tripinfo_N_4_0" vType="car" speedFactor="0.85" vaporized=""/>
    <tripinfo id="N_4_1" depart="129.00" departLane="N_in_0" departPos="5.10" departSpeed="13.90" departDelay="0.00" arrival="191.00" arrivalLane="S_out_0" arrivalPos="242.80" arrivalSpeed="12.70" duration="62.00" routeLength="494.90" waitingTime="13.00" waitingCount="1" stopTime="0.00" timeLoss="26.20" rerouteNo="0" devices="tripinfo_N_4_1" vType="car" speedFactor="1.02" vaporized=""/>
    <tripinfo id="N_4_2" depart="135.00" departLane="N_in_0" departPos="5.10" departSpeed="13.90" departDelay="0.00" arrival="193.00" arrivalLane="S_out_0" arrivalPos="242.80" arrivalSpeed="13.29" duration="58.00" routeLength="494.90" waitingTime="10.00" waitingCount="1" stopTime="0.00" timeLoss="21.88" rerouteNo="0" devices="tripinfo_N_4_2" vType="car" speedFactor="1.00" vaporized=""/>
    <tripinfo id="N_4_3" depart="141.00" departLane="N_in_0" departPos="5.10" departSpeed="13.90" departDelay="0.00" arrival="195.00" arrivalLane="S_out_0" arrivalPos="242.80" arrivalSpeed="13.06" duration="54.00" routeLength="494.90" waitingTime="6.00" waitingCount="1" stopTime="0.00" timeLoss="17.66" rerouteNo="0" devices="tripinfo_N_4_3" vType="car" speedFactor="1.14" vaporized=""/>
    <tripinfo id="N_4_4" depart="147.00" departLane="N_in_0" departPos="5.10" departSpeed="13.90" departDelay="0.00" arrival="196.00" arrivalLane="S_out_0" arrivalPos="242.80" arrivalSpeed="13.49" duration="49.00" routeLength="494.90" waitingTime="1.00" waitingCount="1" stopTime="0.00" timeLoss="13.36" rerouteNo="0" devices="tripinfo_N_4_4" vType="car" speedFactor="1.08" vaporized=""/>
    <tripinfo id="N_5_0" depart="153.00" departLane="N_in_0" departPos="5.10" departSpeed="13.90" departDelay="0.86" arrival="198.00" arrivalLane="S_out_0" arrivalPos="242.80" arrivalSpeed="13.03" duration="45.00" routeLength="494.90" waitingTime="0.00" waitingCount="0" stopTime="0.00" timeLoss="9.14" rerouteNo="0" devices="tripinfo_N_5_0" vType="car" speedFactor="1.12" vaporized=""/>
    <tripinfo id="N_5_1" depart="157.00" departLane="N_in_0" departPos="5.10" departSpeed="13.72" departDelay="0.57" arrival="200.00" arrivalLane="S_out_0" arrivalPos="242.80" arrivalSpeed="12.74" duration="43.00" routeLength="494.90" waitingTime="0.00" waitingCount="0" stopTime="0.00" timeLoss="6.48" rerouteNo="0" devices="tripinfo_N_5_1" vType="car" speedFactor="0.99" vaporized=""/>
    <tripinfo id="S_5_0" depart="165.00" departLane="S_in_0" departPos="5.10" departSpeed="13.90" departDelay="0.00" arrival="203.00" arrivalLane="N_out_0" arrivalPos="242.80" arrivalSpeed="13.03" duration="38.00" routeLength="494.90" waitingTime="0.00" waitingCount="0" stopTime="0.00" timeLoss="1.81" rerouteNo="0" devices="tripinfo_S_5_0" vType="car" speedFactor="1.04" vaporized=""/>
    <tripinfo id="N_5_2" depart="161.00" departLane="N_in_0" departPos="5.10" departSpeed="12.26" departDelay="0.29" arrival="204.00" arrivalLane="S_out_0" arrivalPos="242.80" arrivalSpeed="11.92" duration="43.00" routeLength="494.90" waitingTime="0.00" waitingCount="0" stopTime="0.00" timeLoss="2.28" rerouteNo="0" devices="tripinfo_N_5_2" vType="car" speedFactor="0.88" vaporized=""/>
    <tripinfo id="N_5_3" depart="165.00" departLane="N_in_0" departPos="5.10" departSpeed="12.71" departDelay="0.00" arrival="206.00" arrivalLane="S_out_0" arrivalPos="242.80" arrivalSpeed="11.73" duration="41.00" routeLength="494.90" waitingTime="0.00" waitingCount="0" stopTime="0.00" timeLoss="1.67" rerouteNo="0" devices="tripinfo_N_5_3" vType="car" speedFactor="0.91" vaporized=""/>
    <tripinfo id="N_5_4" depart="170.00" departLane="N_in_0" departPos="5.10" departSpeed="13.90" departDelay="0.71" arrival="208.00" arrivalLane="S_out_0" arrivalPos="242.80" arrivalSpeed="12.78" duration="38.00" routeLength="494.90" waitingTime="0.00" waitingCount="0" stopTime="0.00" timeLoss="1.95" rerouteNo="0" devices="tripinfo_N_5_4" vType="car" speedFactor="1.02" vaporized=""/>
    <tripinfo id="N_5_5" depart="174.00" departLane="N_in_0" departPos="5.10" departSpeed="13.07" departDelay="0.43" arrival="214.00" arrivalLane="S_out_0" arrivalPos="242.80" arrivalSpeed="12.92" duration="40.00" routeLength="494.90" waitingTime="0.00" waitingCount="0" stopTime="0.00" timeLoss="1.99" rerouteNo="0" devices="tripinfo_N_5_5" vType="car" speedFactor="0.94" vaporized=""/>
    <tripinfo id="N_5_6" depart="178.00" departLane="N_in_0" departPos="5.10" departSpeed="13.28" departDelay="0.14" arrival="218.00" arrivalLane="S_out_0" arrivalPos="242.80" arrivalSpeed="12.82" duration="40.00" routeLength="494.90" waitingTime="0.00" waitingCount="0" stopTime="0.00" timeLoss="1.78" rerouteNo="0" devices="tripinfo_N_5_6" vType="car" speedFactor="0.96" vaporized=""/>
    <tripinfo id="E_4_1" depart="143.00" departLane="E_in_0" departPos="5.10" departSpeed="13.90" departDelay="0.50" arrival="222.00" arrivalLane="W_out_0" arrivalPos="242.80" arrivalSpeed="13.04" duration="79.00" routeLength="494.90" waitingTime="35.00" waitingCount="1" stopTime="0.00" timeLoss="42.97" rerouteNo="0" devices="tripinfo_E_4_1" vType="car" speedFactor="1.02" vaporized=""/>
    <tripinfo id="W_4_2" depart="139.00" departLane="W_in_0" departPos="5.10" departSpeed="12.49" departDelay="0.25" arrival="224.00" arrivalLane="E_out_0" arrivalPos="242.80" arrivalSpeed="11.34" duration="85.00" routeLength="494.90" waitingTime="38.00" waitingCount="1" stopTime="0.00" timeLoss="45.19" rerouteNo="0" devices="tripinfo_W_4_2" vType="car" speedFactor="0.90" vaporized=""/>
    <tripinfo id="E_5_0" depart="158.00" departLane="E_in_0" departPos="5.10" departSpeed="13.03" departDelay="0.50" arrival="225.00" arrivalLane="W_out_0" arrivalPos="242.80" arrivalSpeed="12.75" duration="67.00" routeLength="494.90" waitingTime="21.00" waitingCount="1" stopTime="0.00" timeLoss="28.42" rerouteNo="0" devices="tripinfo_E_5_0" vType="car" speedFactor="0.94" vaporized=""/>
    <tripinfo id="W_4_3" depart="147.00" departLane="W_in_0" departPos="5.10" departSpeed="13.48" departDelay="0.75" arrival="226.00" arrivalLane="E_out_0" arrivalPos="242.80" arrivalSpeed="12.65" duration="79.00" routeLength="494.90" waitingTime="32.00" waitingCount="1" stopTime="0.00" timeLoss="41.75" rerouteNo="0" devices="tripinfo_W_4_3" vType="car" speedFactor="0.97" vaporized=""/>
    <tripinfo id="E_5_1" depart="173.00" departLane="E_in_0" departPos="5.10" departSpeed="13.52" departDelay="0.50" arrival="227.00" arrivalLane="W_out_0" arrivalPos="242.80" arrivalSpeed="13.30" duration="54.00" routeLength="494.90" waitingTime="9.00" waitingCount="1" stopTime="0.00" timeLoss="16.49" rerouteNo="0" devices="tripinfo_E_5_1" vType="car" speedFactor="0.97" vaporized=""/>
    <tripinfo id="W_5_0" depart="154.00" departLane="W_in_0" departPos="5.10" departSpeed="13.90" departDelay="0.25" arrival="228.00" arrivalLane="E_out_0" arrivalPos="242.80" arrivalSpeed="13.56" duration="74.00" routeLength="494.90" waitingTime="28.00" waitingCount="1" stopTime="0.00" timeLoss="37.56" rerouteNo="0" devices="tripinfo_W_5_0" vType="car" speedFactor="1.02" vaporized=""/>
    <tripinfo id="W_5_1" depart="162.00" departLane="W_in_0" departPos="5.10" departSpeed="12.60" departDelay="0.75" arrival="230.00" arrivalLane="E_out_0" arrivalPos="242.80" arrivalSpeed="12.16" duration="68.00" routeLength="494.90" waitingTime="19.00" waitingCount="1" stopTime="0.00" timeLoss="28.07" rerouteNo="0" devices="tripinfo_W_5_1" vType="car" speedFactor="0.91" vaporized=""/>
    <tripinfo id="W_5_2" depart="169.00" departLane="W_in_0" departPos="5.10" departSpeed="13.90" departDelay="0.25" arrival="231.00" arrivalLane="E_out_0" arrivalPos="242.80" arrivalSpeed="13.24" duration="62.00" routeLength="494.90" waitingTime="17.00" waitingCount="1" stopTime="0.00" timeLoss="26.33" rerouteNo="0" devices="tripinfo_W_5_2" vType="car" speedFactor="1.02" vaporized=""/>