<?xml version="1.0" encoding="UTF-8"?>

<!-- generated on 2026-06-06 17:25:05 by Eclipse SUMO sumo Version 1.20.0
<configuration xmlns:xsi="http://www.w3.org/2001/XMLSchema-instance" xsi:noNamespaceSchemaLocation="http://sumo.dlr.de/xsd/sumoConfiguration.xsd">

    <input>
        <net-file value="/Users/mouadassargual/Desktop/Thesis Mouad/sumo/simple_intersection/simple.net.xml"/>
        <route-files value="/Users/mouadassargual/Desktop/Thesis Mouad/sumo/simple_intersection/routes.rou.xml"/>
    </input>

    <output>
        <summary-output value="/Users/mouadassargual/Desktop/Thesis Mouad/sumo/simple_intersection/results/mdp_mdp30_summary.xml"/>
        <tripinfo-output value="/Users/mouadassargual/Desktop/Thesis Mouad/sumo/simple_intersection/results/mdp_mdp30_tripinfo.xml"/>
    </output>

    <time>
        <begin value="0"/>
        <end value="600"/>
    </time>

    <report>
        <duration-log.disable value="true"/>
        <no-step-log value="true"/>
    </report>

    <traci_server>
        <remote-port value="8813"/>
    </traci_server>

</configuration>
-->

<tripinfos xmlns:xsi="http://www.w3.org/2001/XMLSchema-instance" xsi:noNamespaceSchemaLocation="http://sumo.dlr.de/xsd/tripinfo_file.xsd">
    <tripinfo id="N_0_0" depart="3.00" departLane="N_in_0" departPos="5.10" departSpeed="13.90" departDelay="0.00" arrival="41.00" arrivalLane="S_out_0" arrivalPos="242.80" arrivalSpeed="13.59" duration="38.00" routeLength="494.90" waitingTime="0.00" waitingCount="0" stopTime="0.00" timeLoss="1.66" rerouteNo="0" devices="tripinfo_N_0_0" vType="car" speedFactor="1.06" vaporized=""/>
    <tripinfo id="N_0_1" depart="9.00" departLane="N_in_0" departPos="5.10" departSpeed="13.90" departDelay="0.00" arrival="47.00" arrivalLane="S_out_0" arrivalPos="242.80" arrivalSpeed="13.31" duration="38.00" routeLength="494.90" waitingTime="0.00" waitingCount="0" stopTime="0.00" timeLoss="1.94" rerouteNo="0" devices="tripinfo_N_0_1" vType="car" speedFactor="1.01" vaporized=""/>
    <tripinfo id="N_0_2" depart="15.00" departLane="N_in_0" departPos="5.10" departSpeed="13.90" departDelay="0.00" arrival="53.00" arrivalLane="S_out_0" arrivalPos="242.80" arrivalSpeed="12.89" duration="38.00" routeLength="494.90" waitingTime="0.00" waitingCount="0" stopTime="0.00" timeLoss="1.91" rerouteNo="0" devices="tripinfo_N_0_2" vType="car" speedFactor="1.03" vaporized=""/>
    <tripinfo id="E_0_0" depart="15.00" departLane="E_in_0" departPos="5.10" departSpeed="13.90" departDelay="0.00" arrival="55.00" arrivalLane="W_out_0" arrivalPos="242.80" arrivalSpeed="13.62" duration="40.00" routeLength="494.90" waitingTime="0.00" waitingCount="0" stopTime="0.00" timeLoss="3.71" rerouteNo="0" devices="tripinfo_E_0_0" vType="car" speedFactor="1.05" vaporized=""/>
    <tripinfo id="W_0_0" depart="4.00" departLane="W_in_0" departPos="5.10" departSpeed="13.04" departDelay="0.25" arrival="58.00" arrivalLane="E_out_0" arrivalPos="242.80" arrivalSpeed="11.91" duration="54.00" routeLength="494.90" waitingTime="8.00" waitingCount="1" stopTime="0.00" timeLoss="15.54" rerouteNo="0" devices="tripinfo_W_0_0" vType="car" speedFactor="0.94" vaporized=""/>
    <tripinfo id="W_0_1" depart="12.00" departLane="W_in_0" departPos="5.10" departSpeed="13.90" departDelay="0.75" arrival="60.00" arrivalLane="E_out_0" arrivalPos="242.80" arrivalSpeed="13.04" duration="48.00" routeLength="494.90" waitingTime="3.00" waitingCount="1" stopTime="0.00" timeLoss="11.55" rerouteNo="0" devices="tripinfo_W_0_1" vType="car" speedFactor="1.08" vaporized=""/>
    <tripinfo id="W_0_2" depart="19.00" departLane="W_in_0" departPos="5.10" departSpeed="12.32" departDelay="0.25" arrival="63.00" arrivalLane="E_out_0" arrivalPos="242.80" arrivalSpeed="11.72" duration="44.00" routeLength="494.90" waitingTime="0.00" waitingCount="0" stopTime="0.00" timeLoss="3.18" rerouteNo="0" devices="tripinfo_W_0_2" vType="car" speedFactor="0.89" vaporized=""/>
    <tripinfo id="W_0_3" depart="27.00" departLane="W_in_0" departPos="5.10" departSpeed="11.91" departDelay="0.75" arrival="72.00" arrivalLane="E_out_0" arrivalPos="242.80" arrivalSpeed="10.92" duration="45.00" routeLength="494.90" waitingTime="0.00" waitingCount="0" stopTime="0.00" timeLoss="2.85" rerouteNo="0" devices="tripinfo_W_0_3" vType="car" speedFactor="0.86" vaporized=""/>
    <tripinfo id="W_1_0" depart="34.00" departLane="W_in_0" departPos="5.10" departSpeed="13.90" departDelay="0.25" arrival="74.00" arrivalLane="E_out_0" arrivalPos="242.80" arrivalSpeed="13.52" duration="40.00" routeLength="494.90" waitingTime="0.00" waitingCount="0" stopTime="0.00" timeLoss="3.51" rerouteNo="0" devices="tripinfo_W_1_0" vType="car" speedFactor="1.05" vaporized=""/>
    <tripinfo id="E_1_0" depart="38.00" departLane="E_in_0" departPos="5.10" departSpeed="13.78" departDelay="0.50" arrival="76.00" arrivalLane="W_out_0" arrivalPos="242.80" arrivalSpeed="13.45" duration="38.00" routeLength="494.90" waitingTime="0.00" waitingCount="0" stopTime="0.00" timeLoss="1.82" rerouteNo="0" devices="tripinfo_E_1_0" vType="car" speedFactor="0.99" vaporized=""/>
    <tripinfo id="W_1_1" depart="42.00" departLane="W_in_0" departPos="5.10" departSpeed="12.88" departDelay="0.75" arrival="83.00" arrivalLane="E_out_0" arrivalPos="242.80" arrivalSpeed="12.39" duration="41.00" routeLength="494.90" waitingTime="0.00" waitingCount="0" stopTime="0.00" timeLoss="2.06" rerouteNo="0" devices="tripinfo_W_1_1" vType="car" speedFactor="0.93" vaporized=""/>
    <tripinfo id="N_0_3" depart="21.00" departLane="N_in_0" departPos="5.10" departSpeed="13.04" departDelay="0.00" arrival="88.00" arrivalLane="S_out_0" arrivalPos="242.80" arrivalSpeed="11.84" duration="67.00" routeLength="494.90" waitingTime="20.00" waitingCount="1" stopTime="0.00" timeLoss="28.35" rerouteNo="0" devices="tripinfo_N_0_3" vType="car" speedFactor="0.94" vaporized=""/>
    <tripinfo id="N_0_4" depart="27.00" departLane="N_in_0" departPos="5.10" departSpeed="13.90" departDelay="0.00" arrival="89.00" arrivalLane="S_out_0" arrivalPos="242.80" arrivalSpeed="13.81" duration="62.00" routeLength="494.90" waitingTime="18.00" waitingCount="1" stopTime="0.00" timeLoss="26.27" rerouteNo="0" devices="tripinfo_N_0_4" vType="car" speedFactor="1.09" vaporized=""/>
    <tripinfo id="S_0_0" depart="15.00" departLane="S_in_0" departPos="5.10" departSpeed="11.55" departDelay="0.00" arrival="91.00" arrivalLane="N_out_0" arrivalPos="242.80" arrivalSpeed="10.77" duration="76.00" routeLength="494.90" waitingTime="26.00" waitingCount="1" stopTime="0.00" timeLoss="32.26" rerouteNo="0" devices="tripinfo_S_0_0" vType="car" speedFactor="0.83" vaporized=""/>
    <tripinfo id="N_1_0" depart="33.00" departLane="N_in_0" departPos="5.10" departSpeed="13.90" departDelay="0.50" arrival="91.00" arrivalLane="S_out_0" arrivalPos="242.80" arrivalSpeed="13.15" duration="58.00" routeLength="494.90" waitingTime="13.00" waitingCount="1" stopTime="0.00" timeLoss="21.97" rerouteNo="0" devices="tripinfo_N_1_0" vType="car" speedFactor="1.03" vaporized=""/>
    <tripinfo id="S_1_0" depart="45.00" departLane="S_in_0" departPos="5.10" departSpeed="13.09" departDelay="0.00" arrival="92.00" arrivalLane="N_out_0" arrivalPos="242.80" arrivalSpeed="12.31" duration="47.00" routeLength="494.90" waitingTime="0.00" waitingCount="0" stopTime="0.00" timeLoss="8.99" rerouteNo="0" devices="tripinfo_S_1_0" vType="car" speedFactor="0.94" vaporized=""/>
    <tripinfo id="N_1_1" depart="38.00" departLane="N_in_0" departPos="5.10" departSpeed="13.90" departDelay="0.50" arrival="93.00" arrivalLane="S_out_0" arrivalPos="242.80" arrivalSpeed="12.94" duration="55.00" routeLength="494.90" waitingTime="11.00" waitingCount="1" stopTime="0.00" timeLoss="18.74" rerouteNo="0" devices="tripinfo_N_1_1" vType="car" speedFactor="1.12" vaporized=""/>
    <tripinfo id="N_1_2" depart="43.00" departLane="N_in_0" departPos="5.10" departSpeed="12.21" departDelay="0.50" arrival="97.00" arrivalLane="S_out_0" arrivalPos="242.80" arrivalSpeed="11.28" duration="54.00" routeLength="494.90" waitingTime="4.00" waitingCount="1" stopTime="0.00" timeLoss="12.94" rerouteNo="0" devices="tripinfo_N_1_2" vType="car" speedFactor="0.88" vaporized=""/>
    <tripinfo id="N_1_3" depart="48.00" departLane="N_in_0" departPos="5.10" departSpeed="13.01" departDelay="0.50" arrival="99.00" arrivalLane="S_out_0" arrivalPos="242.80" arrivalSpeed="12.22" duration="51.00" routeLength="494.90" waitingTime="2.00" waitingCount="1" stopTime="0.00" timeLoss="12.25" rerouteNo="0" devices="tripinfo_N_1_3" vType="car" speedFactor="0.94" vaporized=""/>
    <tripinfo id="N_1_4" depart="53.00" departLane="N_in_0" departPos="5.10" departSpeed="13.90" departDelay="0.50" arrival="100.00" arrivalLane="S_out_0" arrivalPos="242.80" arrivalSpeed="13.62" duration="47.00" routeLength="494.90" waitingTime="0.00" waitingCount="0" stopTime="0.00" timeLoss="11.37" rerouteNo="0" devices="tripinfo_N_1_4" vType="car" speedFactor="1.02" vaporized=""/>
    <tripinfo id="N_1_5" depart="58.00" departLane="N_in_0" departPos="5.10" departSpeed="12.37" departDelay="0.50" arrival="102.00" arrivalLane="S_out_0" arrivalPos="242.80" arrivalSpeed="12.25" duration="44.00" routeLength="494.90" waitingTime="0.00" waitingCount="0" stopTime="0.00" timeLoss="3.95" rerouteNo="0" devices="tripinfo_N_1_5" vType="car" speedFactor="0.89" vaporized=""/>
    <tripinfo id="N_2_0" depart="63.00" departLane="N_in_0" departPos="5.10" departSpeed="11.48" departDelay="0.86" arrival="109.00" arrivalLane="S_out_0" arrivalPos="242.80" arrivalSpeed="10.57" duration="46.00" routeLength="494.90" waitingTime="0.00" waitingCount="0" stopTime="0.00" timeLoss="2.46" rerouteNo="0" devices="tripinfo_N_2_0" vType="car" speedFactor="0.83" vaporized=""/>
    <tripinfo id="N_2_1" depart="67.00" departLane="N_in_0" departPos="5.10" departSpeed="12.75" departDelay="0.57" arrival="111.00" arrivalLane="S_out_0" arrivalPos="242.80" arrivalSpeed="12.13" duration="44.00" routeLength="494.90" waitingTime="0.00" waitingCount="0" stopTime="0.00" timeLoss="4.40" rerouteNo="0" devices="tripinfo_N_2_1" vType="car" speedFactor="0.92" vaporized=""/>
    <tripinfo id="N_2_2" depart="71.00" departLane="N_in_0" departPos="5.10" departSpeed="13.90" departDelay="0.29" arrival="112.00" arrivalLane="S_out_0" arrivalPos="242.80" arrivalSpeed="13.48" duration="41.00" routeLength="494.90" waitingTime="0.00" waitingCount="0" stopTime="0.00" timeLoss="5.29" rerouteNo="0" devices="tripinfo_N_2_2" vType="car" speedFactor="1.13" vaporized=""/>
    <tripinfo id="N_2_3" depart="75.00" departLane="N_in_0" departPos="5.10" departSpeed="13.90" departDelay="0.00" arrival="114.00" arrivalLane="S_out_0" arrivalPos="242.80" arrivalSpeed="13.22" duration="39.00" routeLength="494.90" waitingTime="0.00" waitingCount="0" stopTime="0.00" timeLoss="3.01" rerouteNo="0" devices="tripinfo_N_2_3" vType="car" speedFactor="1.18" vaporized=""/>
    <tripinfo id="W_1_2" depart="49.00" departLane="W_in_0" departPos="5.10" departSpeed="13.90" departDelay="0.25" arrival="117.00" arrivalLane="E_out_0" arrivalPos="242.80" arrivalSpeed="13.60" duration="68.00" routeLength="494.90" waitingTime="24.00" waitingCount="1" stopTime="0.00" timeLoss="32.18" rerouteNo="0" devices="tripinfo_W_1_2" vType="car" speedFactor="1.16" vaporized=""/>
    <tripinfo id="E_1_1" depart="53.00" departLane="E_in_0" departPos="5.10" departSpeed="13.90" departDelay="0.50" arrival="117.00" arrivalLane="W_out_0" arrivalPos="242.80" arrivalSpeed="12.87" duration="64.00" routeLength="494.90" waitingTime="21.00" waitingCount="1" stopTime="0.00" timeLoss="28.40" rerouteNo="0" devices="tripinfo_E_1_1" vType="car" speedFactor="1.01" vaporized=""/>
    <tripinfo id="W_1_3" depart="57.00" departLane="W_in_0" departPos="5.10" departSpeed="13.55" departDelay="0.75" arrival="119.00" arrivalLane="E_out_0" arrivalPos="242.80" arrivalSpeed="12.77" duration="62.00" routeLength="494.90" waitingTime="17.00" waitingCount="1" stopTime="0.00" timeLoss="25.44" rerouteNo="0" devices="tripinfo_W_1_3" vType="car" speedFactor="0.97" vaporized=""/>
    <tripinfo id="E_2_0" depart="68.00" departLane="E_in_0" departPos="5.10" departSpeed="13.19" departDelay="0.50" arrival="121.00" arrivalLane="W_out_0" arrivalPos="242.80" arrivalSpeed="12.17" duration="53.00" routeLength="494.90" waitingTime="7.00" waitingCount="1" stopTime="0.00" timeLoss="14.56" rerouteNo="0" devices="tripinfo_E_2_0" vType="car" speedFactor="0.95" vaporized=""/>
    <tripinfo id="E_2_1" depart="83.00" departLane="E_in_0" departPos="5.10" departSpeed="13.90" departDelay="0.50" arrival="122.00" arrivalLane="W_out_0" arrivalPos="242.80" arrivalSpeed="13.81" duration="39.00" routeLength="494.90" waitingTime="0.00" waitingCount="0" stopTime="0.00" timeLoss="3.10" rerouteNo="0" devices="tripinfo_E_2_1" vType="car" speedFactor="1.17" vaporized=""/>
    <tripinfo id="W_2_0" depart="64.00" departLane="W_in_0" departPos="5.10" departSpeed="12.13" departDelay="0.25" arrival="124.00" arrivalLane="E_out_0" arrivalPos="242.80" arrivalSpeed="10.99" duration="60.00" routeLength="494.90" waitingTime="10.00" waitingCount="1" stopTime="0.00" timeLoss="18.36" rerouteNo="0" devices="tripinfo_W_2_0" vType="car" speedFactor="0.87" vaporized=""/>
    <tripinfo id="W_2_1" depart="72.00" departLane="W_in_0" departPos="5.10" departSpeed="12.95" departDelay="0.75" arrival="125.00" arrivalLane="E_out_0" arrivalPos="242.80" arrivalSpeed="12.04" duration="53.00" routeLength="494.90" waitingTime="4.00" waitingCount="1" stopTime="0.00" timeLoss="14.65" rerouteNo="0" devices="tripinfo_W_2_1" vType="car" speedFactor="0.93" vaporized=""/>
    <tripinfo id="W_2_2" depart="79.00" departLane="W_in_0" departPos="5.10" departSpeed="13.90" departDelay="0.25" arrival="127.00" arrivalLane="E_out_0" arrivalPos="242.80" arrivalSpeed="13.16" duration="48.00" routeLength="494.90" waitingTime="0.00" waitingCount="0" stopTime="0.00" timeLoss="11.99" rerouteNo="0" devices="tripinfo_W_2_2" vType="car" speedFactor="1.15" vaporized=""/>
    <tripinfo id="W_2_3" depart="87.00" departLane="W_in_0" departPos="5.10" departSpeed="13.90" departDelay="0.75" arrival="129.00" arrivalLane="E_out_0" arrivalPos="242.80" arrivalSpeed="13.18" duration="42.00" routeLength="494.90" waitingTime="0.00" waitingCount="0" stopTime="0.00" timeLoss="5.69" rerouteNo="0" devices="tripinfo_W_2_3" vType="car" speedFactor="1.02" vaporized=""/>
    <tripinfo id="W_3_0" depart="94.00" departLane="W_in_0" departPos="5.10" departSpeed="13.90" departDelay="0.25" arrival="132.00" arrivalLane="E_out_0" arrivalPos="242.80" arrivalSpeed="12.98" duration="38.00" routeLength="494.90" waitingTime="0.00" waitingCount="0" stopTime="0.00" timeLoss="1.64" rerouteNo="0" devices="tripinfo_W_3_0" vType="car" speedFactor="1.10" vaporized=""/>
    <tripinfo id="E_3_0" depart="98.00" departLane="E_in_0" departPos="5.10" departSpeed="12.52" departDelay="0.50" arrival="140.00" arrivalLane="W_out_0" arrivalPos="242.80" arrivalSpeed="11.47" duration="42.00" routeLength="494.90" waitingTime="0.00" waitingCount="0" stopTime="0.00" timeLoss="2.45" rerouteNo="0" devices="tripinfo_E_3_0" vType="car" speedFactor="0.90" vaporized=""/>
    <tripinfo id="W_3_1" depart="102.00" departLane="W_in_0" departPos="5.10" departSpeed="13.30" departDelay="0.75" arrival="142.00" arrivalLane="E_out_0" arrivalPos="242.80" arrivalSpeed="13.02" duration="40.00" routeLength="494.90" waitingTime="0.00" waitingCount="0" stopTime="0.00" timeLoss="2.08" rerouteNo="0" devices="tripinfo_W_3_1" vType="car" speedFactor="0.96" vaporized=""/>
    <tripinfo id="S_3_0" depart="105.00" departLane="S_in_0" departPos="5.10" departSpeed="13.90" departDelay="0.00" arrival="145.00" arrivalLane="N_out_0" arrivalPos="242.80" arrivalSpeed="13.13" duration="40.00" routeLength="494.90" waitingTime="0.00" waitingCount="0" stopTime="0.00" timeLoss="3.90" rerouteNo="0" devices="tripinfo_S_3_0" vType="car" speedFactor="1.04" vaporized=""/>
    <tripinfo id="N_2_4" depart="80.00" departLane="N_in_0" departPos="5.10" departSpeed="13.90" departDelay="0.71" arrival="147.00" arrivalLane="S_out_0" arrivalPos="242.80" arrivalSpeed="12.74" duration="67.00" routeLength="494.90" waitingTime="24.00" waitingCount="1" stopTime="0.00" timeLoss="30.66" rerouteNo="0" devices="tripinfo_N_2_4" vType="car" speedFactor="1.01" vaporized=""/>
    <tripinfo id="N_2_5" depart="84.00" departLane="N_in_0" departPos="5.10" departSpeed="13.83" departDelay="0.43" arrival="149.00" arrivalLane="S_out_0" arrivalPos="242.80" arrivalSpeed="13.76" duration="65.00" routeLength="494.90" waitingTime="21.00" waitingCount="1" stopTime="0.00" timeLoss="28.52" rerouteNo="0" devices="tripinfo_N_2_5" vType="car" speedFactor="0.99" vaporized=""/>
    <tripinfo id="N_2_6" depart="88.00" departLane="N_in_0" departPos="5.10" departSpeed="13.53" departDelay="0.14" arrival="151.00" arrivalLane="S_out_0" arrivalPos="242.80" arrivalSpeed="13.46" duration="63.00" routeLength="494.90" waitingTime="18.00" waitingCount="1" stopTime="0.00" timeLoss="26.01" rerouteNo="0" devices="tripinfo_N_2_6" vType="car" speedFactor="0.97" vaporized=""/>
    <tripinfo id="N_3_0" depart="93.00" departLane="N_in_0" departPos="5.10" departSpeed="13.90" departDelay="0.00" arrival="153.00" arrivalLane="S_out_0" arrivalPos="242.80" arrivalSpeed="12.69" duration="60.00" routeLength="494.90" waitingTime="15.00" waitingCount="1" stopTime="0.00" timeLoss="23.79" rerouteNo="0" devices="tripinfo_N_3_0" vType="car" speedFactor="1.18" vaporized=""/>
    <tripinfo id="N_3_1" depart="99.00" departLane="N_in_0" departPos="5.10" departSpeed="13.90" departDelay="0.00" arrival="155.00" arrivalLane="S_out_0" arrivalPos="242.80" arrivalSpeed="12.95" duration="56.00" routeLength="494.90" waitingTime="11.00" waitingCount="1" stopTime="0.00" timeLoss="19.52" rerouteNo="0" devices="tripinfo_N_3_1" vType="car" speedFactor="1.03" vaporized=""/>
    <tripinfo id="N_3_2" depart="105.00" departLane="N_in_0" departPos="5.10" departSpeed="13.90" departDelay="0.00" arrival="156.00" arrivalLane="S_out_0" arrivalPos="242.80" arrivalSpeed="12.72" duration="51.00" routeLength="494.90" waitingTime="6.00" waitingCount="1" stopTime="0.00" timeLoss="15.20" rerouteNo="0" devices="tripinfo_N_3_2" vType="car" speedFactor="1.09" vaporized=""/>
    <tripinfo id="N_3_3" depart="111.00" departLane="N_in_0" departPos="5.10" departSpeed="13.90" departDelay="0.00" arrival="158.00" arrivalLane="S_out_0" arrivalPos="242.80" arrivalSpeed="13.51" duration="47.00" routeLength="494.90" waitingTime="2.00" waitingCount="1" stopTime="0.00" timeLoss="11.05" rerouteNo="0" devices="tripinfo_N_3_3" vType="car" speedFactor="1.09" vaporized=""/>
    <tripinfo id="N_3_4" depart="117.00" departLane="N_in_0" departPos="5.10" departSpeed="12.19" departDelay="0.00" arrival="163.00" arrivalLane="S_out_0" arrivalPos="242.80" arrivalSpeed="10.98" duration="46.00" routeLength="494.90" waitingTime="0.00" waitingCount="0" stopTime="0.00" timeLoss="4.64" rerouteNo="0" devices="tripinfo_N_3_4" vType="car" speedFactor="0.88" vaporized=""/>
    <tripinfo id="N_4_0" depart="123.00" departLane="N_in_0" departPos="5.10" departSpeed="11.82" departDelay="0.00" arrival="168.00" arrivalLane="S_out_0" arrivalPos="242.80" arrivalSpeed="11.14" duration="45.00" routeLength="494.90" waitingTime="0.00" waitingCount="0" stopTime="0.00" timeLoss="2.76" rerouteNo="0" devices="tripinfo_N_4_0" vType="car" speedFactor="0.85" vaporized=""/>
    <tripinfo id="N_4_1" depart="129.00" departLane="N_in_0" departPos="5.10" departSpeed="13.90" departDelay="0.00" arrival="170.00" arrivalLane="S_out_0" arrivalPos="242.80" arrivalSpeed="13.45" duration="41.00" routeLength="494.90" waitingTime="0.00" waitingCount="0" stopTime="0.00" timeLoss="4.70" rerouteNo="0" devices="tripinfo_N_4_1" vType="car" speedFactor="1.02" vaporized=""/>
    <tripinfo id="N_4_2" depart="135.00" departLane="N_in_0" departPos="5.10" departSpeed="13.90" departDelay="0.00" arrival="173.00" arrivalLane="S_out_0" arrivalPos="242.80" arrivalSpeed="13.83" duration="38.00" routeLength="494.90" waitingTime="0.00" waitingCount="0" stopTime="0.00" timeLoss="1.66" rerouteNo="0" devices="tripinfo_N_4_2" vType="car" speedFactor="1.00" vaporized=""/>
    <tripinfo id="S_4_0" depart="135.00" departLane="S_in_0" departPos="5.10" departSpeed="13.84" departDelay="0.00" arrival="173.00" arrivalLane="N_out_0" arrivalPos="242.80" arrivalSpeed="12.76" duration="38.00" routeLength="494.90" waitingTime="0.00" waitingCount="0" stopTime="0.00" timeLoss="2.06" rerouteNo="0" devices="tripinfo_S_4_0" vType="car" speedFactor="1.00" vaporized=""/>
    <tripinfo id="E_3_1" depart="113.00" departLane="E_in_0" departPos="5.10" departSpeed="13.86" departDelay="0.50" arrival="177.00" arrivalLane="W_out_0" arrivalPos="242.80" arrivalSpeed="13.40" duration="64.00" routeLength="494.90" waitingTime="20.00" waitingCount="1" stopTime="0.00" timeLoss="28.21" rerouteNo="0" devices="tripinfo_E_3_1" vType="car" speedFactor="1.00" vaporized=""/>
    <tripinfo id="W_3_2" depart="109.00" departLane="W_in_0" departPos="5.10" departSpeed="13.90" departDelay="0.25" arrival="178.00" arrivalLane="E_out_0" arrivalPos="242.80" arrivalSpeed="12.82" duration="69.00" routeLength="494.90" waitingTime="24.00" waitingCount="1" stopTime="0.00" timeLoss="32.64" rerouteNo="0" devices="tripinfo_W_3_2" vType="car" speedFactor="1.04" vaporized=""/>
    <tripinfo id="E_4_0" depart="128.00" departLane="E_in_0" departPos="5.10" departSpeed="13.90" departDelay="0.50" arrival="179.00" arrivalLane="W_out_0" arrivalPos="242.80" arrivalSpeed="13.19" duration="51.00" routeLength="494.90" waitingTime="7.00" waitingCount="1" stopTime="0.00" timeLoss="15.11" rerouteNo="0" devices="tripinfo_E_4_0" vType="car" speedFactor="1.17" vaporized=""/>
    <tripinfo id="W_3_3" depart="117.00" departLane="W_in_0" departPos="5.10" departSpeed="12.52" departDelay="0.75" arrival="181.00" arrivalLane="E_out_0" arrivalPos="242.80" arrivalSpeed="11.74" duration="64.00" routeLength="494.90" waitingTime="15.00" waitingCount="1" stopTime="0.00" timeLoss="24.39" rerouteNo="0" devices="tripinfo_W_3_3" vType="car" speedFactor="0.90" vaporized=""/>
    <tripinfo id="E_4_1" depart="143.00" departLane="E_in_0" departPos="5.10" departSpeed="13.90" departDelay="0.50" arrival="181.00" arrivalLane="W_out_0" arrivalPos="242.80" arrivalSpeed="13.15" duration="38.00" routeLength="494.90" waitingTime="0.00" waitingCount="0" stopTime="0.00" timeLoss="1.97" rerouteNo="0" devices="tripinfo_E_4_1" vType="car" speedFactor="1.02" vaporized=""/>
    <tripinfo id="W_4_0" depart="124.00" departLane="W_in_0" departPos="5.10" departSpeed="11.88" departDelay="0.25" arrival="184.00" arrivalLane="E_out_0" arrivalPos="242.80" arrivalSpeed="10.71" duration="60.00" routeLength="494.90" waitingTime="11.00" waitingCount="1" stopTime="0.00" timeLoss="18.19" rerouteNo="0" devices="tripinfo_W_4_0" vType="car" speedFactor="0.85" vaporized=""/>
    <tripinfo id="W_4_1" depart="132.00" departLane="W_in_0" departPos="5.10" departSpeed="13.90" departDelay="0.75" arrival="186.00" arrivalLane="E_out_0" arrivalPos="242.80" arrivalSpeed="13.49" duration="54.00" routeLength="494.90" waitingTime="7.00" waitingCount="1" stopTime="0.00" timeLoss="17.81" rerouteNo="0" devices="tripinfo_W_4_1" vType="car" speedFactor="1.10" vaporized=""/>
    <tripinfo id="W_4_2" depart="139.00" departLane="W_in_0" departPos="5.10" departSpeed="12.49" departDelay="0.25" arrival="188.00" arrivalLane="E_out_0" arrivalPos="242.80" arrivalSpeed="11.29" duration="49.00" routeLength="494.90" waitingTime="0.00" waitingCount="0" stopTime="0.00" timeLoss="8.81" rerouteNo="0" devices="tripinfo_W_4_2" vType="car" speedFactor="0.90" vaporized=""/>
    <tripinfo id="W_4_3" depart="147.00" departLane="W_in_0" departPos="5.10" departSpeed="13.48" departDelay="0.75" arrival="190.00" arrivalLane="E_out_0" arrivalPos="242.80" arrivalSpeed="12.72" duration="43.00" routeLength="494.90" waitingTime="0.00" waitingCount="0" stopTime="0.00" timeLoss="5.39" rerouteNo="0" devices="tripinfo_W_4_3" vType="car" speedFactor="0.97" vaporized=""/>
    <tripinfo id="W_5_0" depart="154.00" departLane="W_in_0" departPos="5.10" departSpeed="13.90" departDelay="0.25" arrival="192.00" arrivalLane="E_out_0" arrivalPos="242.80" arrivalSpeed="13.02" duration="38.00" routeLength="494.90" waitingTime="0.00" waitingCount="0" stopTime="0.00" timeLoss="1.66" rerouteNo="0" devices="tripinfo_W_5_0" vType="car" speedFactor="1.02" vaporized=""/>
    <tripinfo id="E_5_0" depart="158.00" departLane="E_in_0" departPos="5.10" departSpeed="13.03" departDelay="0.50" arrival="199.00" arrivalLane="W_out_0" arrivalPos="242.80" arrivalSpeed="12.29" duration="41.00" routeLength="494.90" waitingTime="0.00" waitingCount="0" stopTime="0.00" timeLoss="2.09" rerouteNo="0" devices="tripinfo_E_5_0" vType="car" speedFactor="0.94" vaporized=""/>
    <tripinfo id="W_5_1" depart="162.00" departLane="W_in_0" departPos="5.10" departSpeed="12.60" departDelay="0.75" arrival="204.00" arrivalLane="E_out_0" arrivalPos="242.80" arrivalSpeed="11.85" duration="42.00" routeLength="494.90" waitingTime="0.00" waitingCount="0" stopTime="0.00" timeLoss="2.12" rerouteNo="0" devices="tripinfo_W_5_1" vType="car" speedFactor="0.91" vaporized=""/>
    <tripinfo id="S_5_0" depart="165.00" departLane="S_in_0" departPos="5.10" departSpeed="13.90" departDelay="0.00" arrival="205.00" arrivalLane="N_out_0" arrivalPos="242.80" arrivalSpeed="13.32" duration="40.00" routeLength="494.90" waitingTime="0.00" waitingCount="0" stopTime="0.00" timeLoss="4.12" rerouteNo="0" devices="tripinfo_S_5_0" vType="car" speedFactor="1.04" vaporized=""/>
    <tripinfo id="N_4_3" depart="141.00" departLane="N_in_0" departPos="5.10" departSpeed="13.90" departDelay="0.00" arrival="206.00" arrivalLane="S_out_0" arrivalPos="242.80" arrivalSpeed="12.73" duration="65.00" routeLength="494.90" waitingTime="22.00" waitingCount="1" stopTime="0.00" timeLoss="29.36" rerouteNo="0" devices="tripinfo_N_4_3" vType="car" speedFactor="1.14" vaporized=""/>
    <tripinfo id="N_4_4" depart="147.00" departLane="N_in_0" departPos="5.10" departSpeed="13.90" departDelay="0.00" arrival="209.00" arrivalLane="S_out_0" arrivalPos="242.80" arrivalSpeed="13.29" duration="62.00" routeLength="494.90" waitingTime="19.00" waitingCount="1" stopTime="0.00" timeLoss="25.79" rerouteNo="0" devices="tripinfo_N_4_4" vType="car" speedFactor="1.08" vaporized=""/>
    <tripinfo id="N_5_0" depart="153.00" departLane="N_in_0" departPos="5.10" departSpeed="13.90" departDelay="0.86" arrival="211.00" arrivalLane="S_out_0" arrivalPos="242.80" arrivalSpeed="12.84" duration="58.00" routeLength="494.90" waitingTime="15.00" waitingCount="1" stopTime="0.00" timeLoss="21.69" rerouteNo="0" devices="tripinfo_N_5_0" vType="car" speedFactor="1.12" vaporized=""/>
    <tripinfo id="N_5_1" depart="157.00" departLane="N_in_0" departPos="5.10" departSpeed="13.72" departDelay="0.57" arrival="213.00" arrivalLane="S_out_0" arrivalPos="242.80" arrivalSpeed="13.55" duration="56.00" routeLength="494.90" waitingTime="12.00" waitingCount="1" stopTime="0.00" timeLoss="19.05" rerouteNo="0" devices="tripinfo_N_5_1" vType="car" speedFactor="0.99" vaporized=""/>
    <tripinfo id="N_5_2" depart="161.00" departLane="N_in_0" departPos="5.10" departSpeed="12.26" departDelay="0.29" arrival="217.00" arrivalLane="S_out_0" arrivalPos="242.80" arrivalSpeed="11.11" duration="56.00" routeLength="494.90" waitingTime="6.00" waitingCount="1" stopTime="0.00" timeLoss="15.31" rerouteNo="0" devices="tripinfo_N_5_2" vType="car" speedFactor="0.88" vaporized=""/>
    <tripinfo id="N_5_3" depart="165.00" departLane="N_in_0" departPos="5.10" departSpeed="12.71" departDelay="0.00" arrival="219.00" arrivalLane="S_out_0" arrivalPos="242.80" arrivalSpeed="12.63" duration="54.00" routeLength="494.90" waitingTime="5.00" waitingCount="1" stopTime="0.00" timeLoss="14.38" rerouteNo="0" devices="tripinfo_N_5_3" vType="car" speedFactor="0.91" vaporized=""/>
    <tripinfo id="N_5_4" depart="170.00" departLane="N_in_0" departPos="5.10" departSpeed="13.90" departDelay="0.71" arrival="221.00" arrivalLane="S_out_0" arrivalPos="242.80" arrivalSpeed="12.82" duration="51.00" routeLength="494.90" waitingTime="4.00" waitingCount="1" stopTime="0.00" timeLoss="14.52" rerouteNo="0" devices="tripinfo_N_5_4" vType="car" speedFactor="1.02" vaporized=""/>
    <tripinfo id="N_5_5" depart="174.00" departLane="N_in_0" departPos="5.10" departSpeed="13.07" departDelay="0.43" arrival="222.00" arrivalLane="S_out_0" arrivalPos="242.80" arrivalSpeed="12.26" duration="48.00" routeLength="494.90" waitingTime="0.00" waitingCount="0" stopTime="0.00" timeLoss="10.00" rerouteNo="0" devices="tripinfo_N_5_5" vType="car" speedFactor="0.94" vaporized=""/>
    <tripinfo id="N_5_6" depart="178.00" departLane="N_in_0" departPos="5.10" departSpeed="13.28" departDelay="0.14" arrival="224.00" arrivalLane="S_out_0" arrivalPos="242.80" arrivalSpeed="12.70" duration="46.00" routeLength="494.90" waitingTime="0.00" waitingCount="0" stopTime="0.00" timeLoss="8.32" rerouteNo="0" devices="tripinfo_N_5_6" vType="car" speedFactor="0.96" vaporized=""/>
    <tripinfo id="N_6_0" depart="183.00" departLane="N_in_0" departPos="5.10" departSpeed="13.69" departDelay="0.86" arrival="226.00" arrivalLane="S_out_0" arrivalPos="242.80" arrivalSpeed="12.48" duration="43.00" routeLength="494.90" waitingTime="0.00" waitingCount="0" stopTime="0.00" timeLoss="6.29" rerouteNo="0" devices="tripinfo_N_6_0" vType="car" speedFactor="0.98" vaporized=""/>
    <tripinfo id="N_6_1" depart="187.00" departLane="N_in_0" departPos="5.10" departSpeed="13.65" departDelay="0.57" arrival="228.00" arrivalLane="S_out_0" arrivalPos="242.80" arrivalSpeed="13.06" duration="41.00" routeLength="494.90" waitingTime="0.00" waitingCount="0" stopTime="0.00" timeLoss="3.86" rerouteNo="0" devices="tripinfo_N_6_1" vType="car" speedFactor="0.98" vaporized=""/>