<?xml version="1.0" encoding="UTF-8"?>

<!-- generated on 2026-06-06 17:43:22 by Eclipse SUMO sumo Version 1.20.0
<configuration xmlns:xsi="http://www.w3.org/2001/XMLSchema-instance" xsi:noNamespaceSchemaLocation="http://sumo.dlr.de/xsd/sumoConfiguration.xsd">

    <input>
        <net-file value="sumo/agadir_talborjt/agadir_controlled.net.xml"/>
        <route-files value="sumo/agadir_talborjt/agadir.rou.xml"/>
    </input>

    <output>
        <summary-output value="sumo/agadir_talborjt/results/fixed_native_summary.xml"/>
        <tripinfo-output value="sumo/agadir_talborjt/results/fixed_native_tripinfo.xml"/>
    </output>

    <time>
        <begin value="0"/>
        <end value="600"/>
        <step-length value="1"/>
    </time>

    <processing>
        <ignore-route-errors value="true"/>
    </processing>

    <report>
        <duration-log.disable value="true"/>
        <no-step-log value="true"/>
    </report>

    <traci_server>
        <remote-port value="8813"/>
    </traci_server>

</configuration>
-->

<tripinfos xmlns:xsi="http://www.w3.org/2001/XMLSchema-instance" xsi:noNamespaceSchemaLocation="http://sumo.dlr.de/xsd/tripinfo_file.xsd">
    <tripinfo id="N_0_0" depart="3.00" departLane="-591072157#1_0" departPos="4.60" departSpeed="8.83" departDelay="0.00" arrival="25.00" arrivalLane="666212794#1_0" arrivalPos="2.35" arrivalSpeed="13.89" duration="22.00" routeLength="182.18" waitingTime="0.00" waitingCount="0" stopTime="0.00" timeLoss="2.09" rerouteNo="0" devices="tripinfo_N_0_0" vType="car" speedFactor="1.06" vaporized=""/>
    <tripinfo id="N_0_1" depart="9.00" departLane="-591072157#1_0" departPos="4.60" departSpeed="8.42" departDelay="0.00" arrival="32.00" arrivalLane="666212794#1_0" arrivalPos="2.35" arrivalSpeed="13.44" duration="23.00" routeLength="182.18" waitingTime="0.00" waitingCount="0" stopTime="0.00" timeLoss="2.39" rerouteNo="0" devices="tripinfo_N_0_1" vType="car" speedFactor="1.01" vaporized=""/>
    <tripinfo id="W_0_0" depart="4.00" departLane="440316493#2_0" departPos="2.07" departSpeed="0.00" departDelay="0.25" arrival="35.00" arrivalLane="-180596058#2_0" arrivalPos="0.20" arrivalSpeed="10.26" duration="31.00" routeLength="35.95" waitingTime="25.00" waitingCount="1" stopTime="0.00" timeLoss="28.40" rerouteNo="0" devices="tripinfo_W_0_0" vType="car" speedFactor="0.94" vaporized=""/>
    <tripinfo id="E_0_0" depart="15.00" departLane="180596058#2_0" departPos="0.37" departSpeed="0.00" departDelay="0.00" arrival="35.00" arrivalLane="-440316493#2_0" arrivalPos="2.07" arrivalSpeed="10.83" duration="20.00" routeLength="36.93" waitingTime="14.00" waitingCount="1" stopTime="0.00" timeLoss="17.06" rerouteNo="0" devices="tripinfo_E_0_0" vType="car" speedFactor="1.05" vaporized=""/>
    <tripinfo id="W_0_1" depart="32.00" departLane="440316493#2_0" departPos="2.07" departSpeed="3.82" departDelay="20.75" arrival="38.00" arrivalLane="-180596058#2_0" arrivalPos="0.20" arrivalSpeed="13.61" duration="6.00" routeLength="35.95" waitingTime="0.00" waitingCount="0" stopTime="0.00" timeLoss="2.50" rerouteNo="0" devices="tripinfo_W_0_1" vType="car" speedFactor="1.08" vaporized=""/>
    <tripinfo id="W_0_2" depart="34.00" departLane="440316493#2_0" departPos="2.07" departSpeed="0.82" departDelay="15.25" arrival="40.00" arrivalLane="-180596058#2_0" arrivalPos="0.20" arrivalSpeed="12.01" duration="6.00" routeLength="35.95" waitingTime="0.00" waitingCount="0" stopTime="0.00" timeLoss="3.28" rerouteNo="0" devices="tripinfo_W_0_2" vType="car" speedFactor="0.89" vaporized=""/>
    <tripinfo id="E_1_0" depart="38.00" departLane="180596058#2_0" departPos="0.37" departSpeed="13.90" departDelay="0.50" arrival="41.00" arrivalLane="-440316493#2_0" arrivalPos="2.07" arrivalSpeed="13.43" duration="3.00" routeLength="36.93" waitingTime="0.00" waitingCount="0" stopTime="0.00" timeLoss="0.16" rerouteNo="0" devices="tripinfo_E_1_0" vType="car" speedFactor="0.99" vaporized=""/>
    <tripinfo id="S_0_0" depart="15.00" departLane="-28805336#0_0" departPos="2.21" departSpeed="12.70" departDelay="0.00" arrival="43.00" arrivalLane="591072157#1_0" arrivalPos="154.31" arrivalSpeed="6.46" duration="28.00" routeLength="184.60" waitingTime="0.00" waitingCount="0" stopTime="0.00" timeLoss="3.12" rerouteNo="0" devices="tripinfo_S_0_0" vType="car" speedFactor="0.83" vaporized=""/>
    <tripinfo id="W_0_3" depart="37.00" departLane="440316493#2_0" departPos="2.07" departSpeed="2.10" departDelay="10.75" arrival="44.00" arrivalLane="-180596058#2_0" arrivalPos="0.20" arrivalSpeed="12.24" duration="7.00" routeLength="35.95" waitingTime="0.00" waitingCount="0" stopTime="0.00" timeLoss="3.54" rerouteNo="0" devices="tripinfo_W_0_3" vType="car" speedFactor="0.86" vaporized=""/>
    <tripinfo id="W_1_0" depart="40.00" departLane="440316493#2_0" departPos="2.07" departSpeed="3.98" departDelay="6.25" arrival="45.00" arrivalLane="-180596058#2_0" arrivalPos="0.20" arrivalSpeed="11.37" duration="5.00" routeLength="35.95" waitingTime="0.00" waitingCount="0" stopTime="0.00" timeLoss="2.31" rerouteNo="0" devices="tripinfo_W_1_0" vType="car" speedFactor="1.05" vaporized=""/>
    <tripinfo id="W_1_1" depart="42.00" departLane="440316493#2_0" departPos="2.07" departSpeed="2.53" departDelay="0.75" arrival="48.00" arrivalLane="-180596058#2_0" arrivalPos="0.20" arrivalSpeed="11.63" duration="6.00" routeLength="35.95" waitingTime="0.00" waitingCount="0" stopTime="0.00" timeLoss="2.75" rerouteNo="0" devices="tripinfo_W_1_1" vType="car" speedFactor="0.93" vaporized=""/>
    <tripinfo id="W_1_2" depart="49.00" departLane="440316493#2_0" departPos="2.07" departSpeed="13.90" departDelay="0.25" arrival="52.00" arrivalLane="-180596058#2_0" arrivalPos="0.20" arrivalSpeed="12.98" duration="3.00" routeLength="35.95" waitingTime="0.00" waitingCount="0" stopTime="0.00" timeLoss="0.19" rerouteNo="0" devices="tripinfo_W_1_2" vType="car" speedFactor="1.16" vaporized=""/>
    <tripinfo id="E_1_1" depart="53.00" departLane="180596058#2_0" departPos="0.37" departSpeed="13.90" departDelay="0.50" arrival="56.00" arrivalLane="-440316493#2_0" arrivalPos="2.07" arrivalSpeed="13.05" duration="3.00" routeLength="36.93" waitingTime="0.00" waitingCount="0" stopTime="0.00" timeLoss="0.20" rerouteNo="0" devices="tripinfo_E_1_1" vType="car" speedFactor="1.01" vaporized=""/>
    <tripinfo id="W_1_3" depart="57.00" departLane="440316493#2_0" departPos="2.07" departSpeed="13.90" departDelay="0.75" arrival="60.00" arrivalLane="-180596058#2_0" arrivalPos="0.20" arrivalSpeed="12.70" duration="3.00" routeLength="35.95" waitingTime="0.00" waitingCount="0" stopTime="0.00" timeLoss="0.18" rerouteNo="0" devices="tripinfo_W_1_3" vType="car" speedFactor="0.97" vaporized=""/>
    <tripinfo id="N_0_2" depart="15.00" departLane="-591072157#1_0" departPos="4.60" departSpeed="8.58" departDelay="0.00" arrival="65.00" arrivalLane="666212794#1_0" arrivalPos="2.35" arrivalSpeed="12.27" duration="50.00" routeLength="182.18" waitingTime="23.00" waitingCount="1" stopTime="0.00" timeLoss="29.50" rerouteNo="0" devices="tripinfo_N_0_2" vType="car" speedFactor="1.03" vaporized=""/>
    <tripinfo id="N_0_3" depart="21.00" departLane="-591072157#1_0" departPos="4.60" departSpeed="7.81" departDelay="0.00" arrival="66.00" arrivalLane="666212794#1_0" arrivalPos="2.35" arrivalSpeed="12.54" duration="45.00" routeLength="182.18" waitingTime="18.00" waitingCount="1" stopTime="0.00" timeLoss="23.57" rerouteNo="0" devices="tripinfo_N_0_3" vType="car" speedFactor="0.94" vaporized=""/>
    <tripinfo id="N_0_4" depart="27.00" departLane="-591072157#1_0" departPos="4.60" departSpeed="9.09" departDelay="0.00" arrival="68.00" arrivalLane="666212794#1_0" arrivalPos="2.35" arrivalSpeed="12.99" duration="41.00" routeLength="182.18" waitingTime="15.00" waitingCount="1" stopTime="0.00" timeLoss="22.06" rerouteNo="0" devices="tripinfo_N_0_4" vType="car" speedFactor="1.09" vaporized=""/>
    <tripinfo id="N_1_0" depart="33.00" departLane="-591072157#1_0" departPos="4.60" departSpeed="8.55" departDelay="0.50" arrival="70.00" arrivalLane="666212794#1_0" arrivalPos="2.35" arrivalSpeed="13.09" duration="37.00" routeLength="182.18" waitingTime="12.00" waitingCount="1" stopTime="0.00" timeLoss="17.03" rerouteNo="0" devices="tripinfo_N_1_0" vType="car" speedFactor="1.03" vaporized=""/>
    <tripinfo id="N_1_1" depart="38.00" departLane="-591072157#1_0" departPos="4.60" departSpeed="9.35" departDelay="0.50" arrival="72.00" arrivalLane="666212794#1_0" arrivalPos="2.35" arrivalSpeed="13.51" duration="34.00" routeLength="182.18" waitingTime="8.00" waitingCount="1" stopTime="0.00" timeLoss="15.50" rerouteNo="0" devices="tripinfo_N_1_1" vType="car" speedFactor="1.12" vaporized=""/>
    <tripinfo id="N_1_2" depart="43.00" departLane="-591072157#1_0" departPos="4.60" departSpeed="7.32" departDelay="0.50" arrival="75.00" arrivalLane="666212794#1_0" arrivalPos="2.35" arrivalSpeed="13.19" duration="32.00" routeLength="182.18" waitingTime="3.00" waitingCount="1" stopTime="0.00" timeLoss="8.90" rerouteNo="0" devices="tripinfo_N_1_2" vType="car" speedFactor="0.88" vaporized=""/>
    <tripinfo id="N_1_3" depart="48.00" departLane="-591072157#1_0" departPos="4.60" departSpeed="7.80" departDelay="0.50" arrival="77.00" arrivalLane="666212794#1_0" arrivalPos="2.35" arrivalSpeed="12.91" duration="29.00" routeLength="182.18" waitingTime="1.00" waitingCount="1" stopTime="0.00" timeLoss="7.28" rerouteNo="0" devices="tripinfo_N_1_3" vType="car" speedFactor="0.94" vaporized=""/>
    <tripinfo id="N_1_4" depart="53.00" departLane="-591072157#1_0" departPos="4.60" departSpeed="8.48" departDelay="0.50" arrival="79.00" arrivalLane="666212794#1_0" arrivalPos="2.35" arrivalSpeed="13.63" duration="26.00" routeLength="182.18" waitingTime="0.00" waitingCount="0" stopTime="0.00" timeLoss="5.77" rerouteNo="0" devices="tripinfo_N_1_4" vType="car" speedFactor="1.02" vaporized=""/>
    <tripinfo id="N_1_5" depart="58.00" departLane="-591072157#1_0" departPos="4.60" departSpeed="7.41" departDelay="0.50" arrival="84.00" arrivalLane="666212794#1_0" arrivalPos="2.35" arrivalSpeed="13.16" duration="26.00" routeLength="182.18" waitingTime="0.00" waitingCount="0" stopTime="0.00" timeLoss="3.28" rerouteNo="0" devices="tripinfo_N_1_5" vType="car" speedFactor="0.89" vaporized=""/>
    <tripinfo id="S_1_0" depart="45.00" departLane="-28805336#0_0" departPos="2.21" departSpeed="0.00" departDelay="0.00" arrival="86.00" arrivalLane="591072157#1_0" arrivalPos="154.31" arrivalSpeed="6.98" duration="41.00" routeLength="184.60" waitingTime="14.00" waitingCount="1" stopTime="0.00" timeLoss="18.65" rerouteNo="0" devices="tripinfo_S_1_0" vType="car" speedFactor="0.94" vaporized=""/>
    <tripinfo id="N_2_0" depart="63.00" departLane="-591072157#1_0" departPos="4.60" departSpeed="6.88" departDelay="0.86" arrival="92.00" arrivalLane="666212794#1_0" arrivalPos="2.35" arrivalSpeed="12.76" duration="29.00" routeLength="182.18" waitingTime="0.00" waitingCount="0" stopTime="0.00" timeLoss="4.15" rerouteNo="0" devices="tripinfo_N_2_0" vType="car" speedFactor="0.83" vaporized=""/>
    <tripinfo id="W_2_0" depart="64.00" departLane="440316493#2_0" departPos="2.07" departSpeed="0.00" departDelay="0.25" arrival="95.00" arrivalLane="-180596058#2_0" arrivalPos="0.20" arrivalSpeed="12.18" duration="31.00" routeLength="35.95" waitingTime="25.00" waitingCount="1" stopTime="0.00" timeLoss="27.82" rerouteNo="0" devices="tripinfo_W_2_0" vType="car" speedFactor="0.87" vaporized=""/>
    <tripinfo id="E_2_0" depart="68.00" departLane="180596058#2_0" departPos="0.37" departSpeed="0.00" departDelay="0.50" arrival="95.00" arrivalLane="-440316493#2_0" arrivalPos="2.07" arrivalSpeed="10.54" duration="27.00" routeLength="36.93" waitingTime="21.00" waitingCount="1" stopTime="0.00" timeLoss="24.26" rerouteNo="0" devices="tripinfo_E_2_0" vType="car" speedFactor="0.95" vaporized=""/>
    <tripinfo id="E_2_1" depart="92.00" departLane="180596058#2_0" departPos="0.37" departSpeed="5.23" departDelay="9.50" arrival="97.00" arrivalLane="-440316493#2_0" arrivalPos="2.07" arrivalSpeed="12.24" duration="5.00" routeLength="36.93" waitingTime="0.00" waitingCount="0" stopTime="0.00" timeLoss="2.10" rerouteNo="0" devices="tripinfo_E_2_1" vType="car" speedFactor="1.17" vaporized=""/>
    <tripinfo id="W_2_1" depart="91.00" departLane="440316493#2_0" departPos="2.07" departSpeed="0.00" departDelay="19.75" arrival="98.00" arrivalLane="-180596058#2_0" arrivalPos="0.20" arrivalSpeed="11.11" duration="7.00" routeLength="35.95" waitingTime="0.00" waitingCount="0" stopTime="0.00" timeLoss="4.28" rerouteNo="0" devices="tripinfo_W_2_1" vType="car" speedFactor="0.93" vaporized=""/>
    <tripinfo id="W_2_2" depart="95.00" departLane="440316493#2_0" departPos="2.07" departSpeed="3.50" departDelay="16.25" arrival="101.00" arrivalLane="-180596058#2_0" arrivalPos="0.20" arrivalSpeed="12.59" duration="6.00" routeLength="35.95" waitingTime="0.00" waitingCount="0" stopTime="0.00" timeLoss="2.65" rerouteNo="0" devices="tripinfo_W_2_2" vType="car" speedFactor="1.15" vaporized=""/>
    <tripinfo id="E_3_0" depart="98.00" departLane="180596058#2_0" departPos="0.37" departSpeed="13.90" departDelay="0.50" arrival="101.00" arrivalLane="-440316493#2_0" arrivalPos="2.07" arrivalSpeed="13.35" duration="3.00" routeLength="36.93" waitingTime="0.00" waitingCount="0" stopTime="0.00" timeLoss="0.13" rerouteNo="0" devices="tripinfo_E_3_0" vType="car" speedFactor="0.90" vaporized=""/>
    <tripinfo id="W_2_3" depart="97.00" departLane="440316493#2_0" departPos="2.07" departSpeed="0.58" departDelay="10.75" arrival="104.00" arrivalLane="-180596058#2_0" arrivalPos="0.20" arrivalSpeed="12.50" duration="7.00" routeLength="35.95" waitingTime="0.00" waitingCount="0" stopTime="0.00" timeLoss="3.71" rerouteNo="0" devices="tripinfo_W_2_3" vType="car" speedFactor="1.02" vaporized=""/>
    <tripinfo id="W_3_0" depart="101.00" departLane="440316493#2_0" departPos="2.07" departSpeed="6.81" departDelay="7.25" arrival="105.00" arrivalLane="-180596058#2_0" arrivalPos="0.20" arrivalSpeed="12.57" duration="4.00" routeLength="35.95" waitingTime="0.00" waitingCount="0" stopTime="0.00" timeLoss="1.39" rerouteNo="0" devices="tripinfo_W_3_0" vType="car" speedFactor="1.10" vaporized=""/>
    <tripinfo id="W_3_1" depart="103.00" departLane="440316493#2_0" departPos="2.07" departSpeed="7.11" departDelay="1.75" arrival="107.00" arrivalLane="-180596058#2_0" arrivalPos="0.20" arrivalSpeed="12.56" duration="4.00" routeLength="35.95" waitingTime="0.00" waitingCount="0" stopTime="0.00" timeLoss="1.27" rerouteNo="0" devices="tripinfo_W_3_1" vType="car" speedFactor="0.96" vaporized=""/>
    <tripinfo id="W_3_2" depart="109.00" departLane="440316493#2_0" departPos="2.07" departSpeed="13.90" departDelay="0.25" arrival="112.00" arrivalLane="-180596058#2_0" arrivalPos="0.20" arrivalSpeed="13.71" duration="3.00" routeLength="35.95" waitingTime="0.00" waitingCount="0" stopTime="0.00" timeLoss="0.07" rerouteNo="0" devices="tripinfo_W_3_2" vType="car" speedFactor="1.04" vaporized=""/>
    <tripinfo id="E_3_1" depart="113.00" departLane="180596058#2_0" departPos="0.37" departSpeed="13.90" departDelay="0.50" arrival="116.00" arrivalLane="-440316493#2_0" arrivalPos="2.07" arrivalSpeed="13.70" duration="3.00" routeLength="36.93" waitingTime="0.00" waitingCount="0" stopTime="0.00" timeLoss="0.11" rerouteNo="0" devices="tripinfo_E_3_1" vType="car" speedFactor="1.00" vaporized=""/>
    <tripinfo id="W_3_3" depart="117.00" departLane="440316493#2_0" departPos="2.07" departSpeed="13.90" departDelay="0.75" arrival="120.00" arrivalLane="-180596058#2_0" arrivalPos="0.20" arrivalSpeed="13.61" duration="3.00" routeLength="35.95" waitingTime="0.00" waitingCount="0" stopTime="0.00" timeLoss="0.11" rerouteNo="0" devices="tripinfo_W_3_3" vType="car" speedFactor="0.90" vaporized=""/>
    <tripinfo id="N_2_1" depart="67.00" departLane="-591072157#1_0" departPos="4.60" departSpeed="7.64" departDelay="0.57" arrival="125.00" arrivalLane="666212794#1_0" arrivalPos="2.35" arrivalSpeed="11.26" duration="58.00" routeLength="182.18" waitingTime="27.00" waitingCount="1" stopTime="0.00" timeLoss="35.50" rerouteNo="0" devices="tripinfo_N_2_1" vType="car" speedFactor="0.92" vaporized=""/>
    <tripinfo id="N_2_2" depart="71.00" departLane="-591072157#1_0" departPos="4.60" departSpeed="9.43" departDelay="0.29" arrival="126.00" arrivalLane="666212794#1_0" arrivalPos="2.35" arrivalSpeed="11.00" duration="55.00" routeLength="182.18" waitingTime="26.00" waitingCount="1" stopTime="0.00" timeLoss="36.83" rerouteNo="0" devices="tripinfo_N_2_2" vType="car" speedFactor="1.13" vaporized=""/>
    <tripinfo id="N_2_3" depart="75.00" departLane="-591072157#1_0" departPos="4.60" departSpeed="9.82" departDelay="0.00" arrival="128.00" arrivalLane="666212794#1_0" arrivalPos="2.35" arrivalSpeed="13.57" duration="53.00" routeLength="182.18" waitingTime="25.00" waitingCount="1" stopTime="0.00" timeLoss="35.08" rerouteNo="0" devices="tripinfo_N_2_3" vType="car" speedFactor="1.18" vaporized=""/>
    <tripinfo id="N_2_4" depart="80.00" departLane="-591072157#1_0" departPos="4.60" departSpeed="8.37" departDelay="0.71" arrival="130.00" arrivalLane="666212794#1_0" arrivalPos="2.35" arrivalSpeed="12.81" duration="50.00" routeLength="182.18" waitingTime="23.00" waitingCount="1" stopTime="0.00" timeLoss="29.52" rerouteNo="0" devices="tripinfo_N_2_4" vType="car" speedFactor="1.01" vaporized=""/>
    <tripinfo id="N_2_5" depart="84.00" departLane="-591072157#1_0" departPos="4.60" departSpeed="8.29" departDelay="0.43" arrival="132.00" arrivalLane="666212794#1_0" arrivalPos="2.35" arrivalSpeed="12.70" duration="48.00" routeLength="182.18" waitingTime="22.00" waitingCount="1" stopTime="0.00" timeLoss="27.61" rerouteNo="0" devices="tripinfo_N_2_5" vType="car" speedFactor="0.99" vaporized=""/>
    <tripinfo id="N_2_6" depart="88.00" departLane="-591072157#1_0" departPos="4.60" departSpeed="8.11" departDelay="0.14" arrival="135.00" arrivalLane="666212794#1_0" arrivalPos="2.35" arrivalSpeed="13.02" duration="47.00" routeLength="182.18" waitingTime="17.00" waitingCount="1" stopTime="0.00" timeLoss="25.62" rerouteNo="0" devices="tripinfo_N_2_6" vType="car" speedFactor="0.97" vaporized=""/>
    <tripinfo id="N_3_0" depart="93.00" departLane="-591072157#1_0" departPos="4.60" departSpeed="9.83" departDelay="0.00" arrival="137.00" arrivalLane="666212794#1_0" arrivalPos="2.35" arrivalSpeed="13.73" duration="44.00" routeLength="182.18" waitingTime="17.00" waitingCount="1" stopTime="0.00" timeLoss="25.67" rerouteNo="0" devices="tripinfo_N_3_0" vType="car" speedFactor="1.18" vaporized=""/>
    <tripinfo id="N_3_1" depart="99.00" departLane="-591072157#1_0" departPos="4.60" departSpeed="8.58" departDelay="0.00" arrival="139.00" arrivalLane="666212794#1_0" arrivalPos="2.35" arrivalSpeed="13.77" duration="40.00" routeLength="182.18" waitingTime="13.00" waitingCount="1" stopTime="0.00" timeLoss="19.99" rerouteNo="0" devices="tripinfo_N_3_1" vType="car" speedFactor="1.03" vaporized=""/>
    <tripinfo id="N_3_2" depart="105.00" departLane="-591072157#1_0" departPos="4.60" departSpeed="9.10" departDelay="0.00" arrival="141.00" arrivalLane="666212794#1_0" arrivalPos="2.35" arrivalSpeed="13.64" duration="36.00" routeLength="182.18" waitingTime="9.00" waitingCount="1" stopTime="0.00" timeLoss="16.95" rerouteNo="0" devices="tripinfo_N_3_2" vType="car" speedFactor="1.09" vaporized=""/>
    <tripinfo id="N_3_3" depart="111.00" departLane="-591072157#1_0" departPos="4.60" departSpeed="9.06" departDelay="0.00" arrival="143.00" arrivalLane="666212794#1_0" arrivalPos="2.35" arrivalSpeed="13.13" duration="32.00" routeLength="182.18" waitingTime="4.00" waitingCount="1" stopTime="0.00" timeLoss="12.79" rerouteNo="0" devices="tripinfo_N_3_3" vType="car" speedFactor="1.09" vaporized=""/>
    <tripinfo id="S_3_0" depart="105.00" departLane="-28805336#0_0" departPos="2.21" departSpeed="0.00" departDelay="0.00" arrival="144.00" arrivalLane="591072157#1_0" arrivalPos="154.31" arrivalSpeed="7.56" duration="39.00" routeLength="184.60" waitingTime="14.00" waitingCount="1" stopTime="0.00" timeLoss="18.38" rerouteNo="0" devices="tripinfo_S_3_0" vType="car" speedFactor="1.04" vaporized=""/>
    <tripinfo id="N_3_4" depart="117.00" departLane="-591072157#1_0" departPos="4.60" departSpeed="7.30" departDelay="0.00" arrival="147.00" arrivalLane="666212794#1_0" arrivalPos="2.35" arrivalSpeed="13.42" duration="30.00" routeLength="182.18" waitingTime="0.00" waitingCount="0" stopTime="0.00" timeLoss="6.46" rerouteNo="0" devices="tripinfo_N_3_4" vType="car" speedFactor="0.88" vaporized=""/>
    <tripinfo id="N_4_0" depart="123.00" departLane="-591072157#1_0" departPos="4.60" departSpeed="7.08" departDelay="0.00" arrival="150.00" arrivalLane="666212794#1_0" arrivalPos="2.35" arrivalSpeed="12.45" duration="27.00" routeLength="182.18" waitingTime="0.00" waitingCount="0" stopTime="0.00" timeLoss="3.45" rerouteNo="0" devices="tripinfo_N_4_0" vType="car" speedFactor="0.85" vaporized=""/>
    <tripinfo id="N_4_1" depart="129.00" departLane="-591072157#1_0" departPos="4.60" departSpeed="8.47" departDelay="0.00" arrival="152.00" arrivalLane="666212794#1_0" arrivalPos="2.35" arrivalSpeed="13.37" duration="23.00" routeLength="182.18" waitingTime="0.00" waitingCount="0" stopTime="0.00" timeLoss="2.76" rerouteNo="0" devices="tripinfo_N_4_1" vType="car" speedFactor="1.02" vaporized=""/>
    <tripinfo id="W_4_0" depart="124.00" departLane="440316493#2_0" departPos="2.07" departSpeed="0.00" departDelay="0.25" arrival="155.00" arrivalLane="-180596058#2_0" arrivalPos="0.20" arrivalSpeed="10.57" duration="31.00" routeLength="35.95" waitingTime="25.00" waitingCount="1" stopTime="0.00" timeLoss="28.22" rerouteNo="0" devices="tripinfo_W_4_0" vType="car" speedFactor="0.85" vaporized=""/>
    <tripinfo id="E_4_0" depart="128.00" departLane="180596058#2_0" departPos="0.37" departSpeed="0.00" departDelay="0.50" arrival="155.00" arrivalLane="-440316493#2_0" arrivalPos="2.07" arrivalSpeed="10.64" duration="27.00" routeLength="36.93" waitingTime="21.00" waitingCount="1" stopTime="0.00" timeLoss="24.32" rerouteNo="0" devices="tripinfo_E_4_0" vType="car" speedFactor="1.17" vaporized=""/>
    <tripinfo id="W_4_1" depart="152.00" departLane="440316493#2_0" departPos="2.07" departSpeed="5.00" departDelay="20.75" arrival="157.00" arrivalLane="-180596058#2_0" arrivalPos="0.20" arrivalSpeed="11.93" duration="5.00" routeLength="35.95" waitingTime="0.00" waitingCount="0" stopTime="0.00" timeLoss="2.04" rerouteNo="0" devices="tripinfo_W_4_1" vType="car" speedFactor="1.10" vaporized=""/>
    <tripinfo id="S_4_0" depart="135.00" departLane="-28805336#0_0" departPos="2.21" departSpeed="13.90" departDelay="0.00" arrival="158.00" arrivalLane="591072157#1_0" arrivalPos="154.31" arrivalSpeed="7.70" duration="23.00" routeLength="184.60" waitingTime="0.00" waitingCount="0" stopTime="0.00" timeLoss="1.86" rerouteNo="0" devices="tripinfo_S_4_0" vType="car" speedFactor="1.00" vaporized=""/>
    <tripinfo id="E_4_1" depart="152.00" departLane="180596058#2_0" departPos="0.37" departSpeed="3.57" departDelay="9.50" arrival="158.00" arrivalLane="-440316493#2_0" arrivalPos="2.07" arrivalSpeed="12.92" duration="6.00" routeLength="36.93" waitingTime="0.00" waitingCount="0" stopTime="0.00" timeLoss="2.56" rerouteNo="0" devices="tripinfo_E_4_1" vType="car" speedFactor="1.02" vaporized=""/>
    <tripinfo id="W_4_2" depart="154.00" departLane="440316493#2_0" departPos="2.07" departSpeed="4.68" departDelay="15.25" arrival="159.00" arrivalLane="-180596058#2_0" arrivalPos="0.20" arrivalSpeed="12.05" duration="5.00" routeLength="35.95" waitingTime="0.00" waitingCount="0" stopTime="0.00" timeLoss="2.18" rerouteNo="0" devices="tripinfo_W_4_2" vType="car" speedFactor="0.90" vaporized=""/>
    <tripinfo id="E_5_0" depart="158.00" departLane="180596058#2_0" departPos="0.37" departSpeed="13.90" departDelay="0.50" arrival="161.00" arrivalLane="-440316493#2_0" arrivalPos="2.07" arrivalSpeed="13.07" duration="3.00" routeLength="36.93" waitingTime="0.00" waitingCount="0" stopTime="0.00" timeLoss="0.18" rerouteNo="0" devices="tripinfo_E_5_0" vType="car" speedFactor="0.94" vaporized=""/>
    <tripinfo id="W_4_3" depart="156.00" departLane="440316493#2_0" departPos="2.07" departSpeed="3.63" departDelay="9.75" arrival="162.00" arrivalLane="-180596058#2_0" arrivalPos="0.20" arrivalSpeed="12.59" duration="6.00" routeLength="35.95" waitingTime="0.00" waitingCount="0" stopTime="0.00" timeLoss="2.73" rerouteNo="0" devices="tripinfo_W_4_3" vType="car" speedFactor="0.97" vaporized=""/>
    <tripinfo id="W_5_0" depart="158.00" departLane="440316493#2_0" departPos="2.07" departSpeed="0.26" departDelay="4.25" arrival="165.00" arrivalLane="-180596058#2_0" arrivalPos="0.20" arrivalSpeed="11.94" duration="7.00" routeLength="35.95" waitingTime="0.00" waitingCount="0" stopTime="0.00" timeLoss="3.91" rerouteNo="0" devices="tripinfo_W_5_0" vType="car" speedFactor="1.02" vaporized=""/>
    <tripinfo id="W_5_1" depart="162.00" departLane="440316493#2_0" departPos="2.07" departSpeed="6.17" departDelay="0.75" arrival="167.00" arrivalLane="-180596058#2_0" arrivalPos="0.20" arrivalSpeed="12.36" duration="5.00" routeLength="35.95" waitingTime="0.00" waitingCount="0" stopTime="0.00" timeLoss="1.87" rerouteNo="0" devices="tripinfo_W_5_1" vType="car" speedFactor="0.91" vaporized=""/>
    <tripinfo id="W_5_2" depart="169.00" departLane="440316493#2_0" departPos="2.07" departSpeed="13.90" departDelay="0.25" arrival="172.00" arrivalLane="-180596058#2_0" arrivalPos="0.20" arrivalSpeed="12.98" duration="3.00" routeLength="35.95" waitingTime="0.00" waitingCount="0" stopTime="0.00" timeLoss="0.17" rerouteNo="0" devices="tripinfo_W_5_2" vType="car" speedFactor="1.02" vaporized=""/>
    <tripinfo id="E_5_1" depart="173.00" departLane="180596058#2_0" departPos="0.37" departSpeed="13.90" departDelay="0.50" arrival="176.00" arrivalLane="-440316493#2_0" arrivalPos="2.07" arrivalSpeed="13.23" duration="3.00" routeLength="36.93" waitingTime="0.00" waitingCount="0" stopTime="0.00" timeLoss="0.20" rerouteNo="0" devices="tripinfo_E_5_1" vType="car" speedFactor="0.97" vaporized=""/>
    <tripinfo id="W_5_3" depart="177.00" departLane="440316493#2_0" departPos="2.07" departSpeed="13.90" departDelay="0.75" arrival="180.00" arrivalLane="-180596058#2_0" arrivalPos="0.20" arrivalSpeed="13.01" duration="3.00" routeLength="35.95" waitingTime="0.00" waitingCount="0" stopTime="0.00" timeLoss="0.14" rerouteNo="0" devices="tripinfo_W_5_3" vType="car" speedFactor="1.06" vaporized=""/>
    <tripinfo id="N_4_2" depart="135.00" departLane="-591072157#1_0" departPos="4.60" departSpeed="8.36" departDelay="0.00" arrival="185.00" arrivalLane="666212794#1_0" arrivalPos="2.35" arrivalSpeed="11.28" duration="50.00" routeLength="182.18" waitingTime="22.00" waitingCount="1" stopTime="0.00" timeLoss="29.20" rerouteNo="0" devices="tripinfo_N_4_2" vType="car" speedFactor="1.00" vaporized=""/>
    <tripinfo id="N_4_3" depart="141.00" departLane="-591072157#1_0" departPos="4.60" departSpeed="9.52" departDelay="0.00" arrival="186.00" arrivalLane="666212794#1_0" arrivalPos="2.35" arrivalSpeed="11.41" duration="45.00" routeLength="182.18" waitingTime="22.00" waitingCount="1" stopTime="0.00" timeLoss="26.99" rerouteNo="0" devices="tripinfo_N_4_3" vType="car" speedFactor="1.14" vaporized=""/>
    <tripinfo id="N_4_4" depart="147.00" departLane="-591072157#1_0" departPos="4.60" departSpeed="9.02" departDelay="0.00" arrival="188.00" arrivalLane="666212794#1_0" arrivalPos="2.35" arrivalSpeed="13.14" duration="41.00" routeLength="182.18" waitingTime="15.00" waitingCount="1" stopTime="0.00" timeLoss="21.97" rerouteNo="0" devices="tripinfo_N_4_4" vType="car" speedFactor="1.08" vaporized=""/>
    <tripinfo id="N_5_0" depart="153.00" departLane="-591072157#1_0" departPos="4.60" departSpeed="9.32" departDelay="0.86" arrival="190.00" arrivalLane="666212794#1_0" arrivalPos="2.35" arrivalSpeed="13.35" duration="37.00" routeLength="182.18" waitingTime="12.00" waitingCount="1" stopTime="0.00" timeLoss="18.56" rerouteNo="0" devices="tripinfo_N_5_0" vType="car" speedFactor="1.12" vaporized=""/>
    <tripinfo id="N_5_1" depart="157.00" departLane="-591072157#1_0" departPos="4.60" departSpeed="8.22" departDelay="0.57" arrival="193.00" arrivalLane="666212794#1_0" arrivalPos="2.35" arrivalSpeed="12.45" duration="36.00" routeLength="182.18" waitingTime="8.00" waitingCount="1" stopTime="0.00" timeLoss="15.13" rerouteNo="0" devices="tripinfo_N_5_1" vType="car" speedFactor="0.99" vaporized=""/>
    <tripinfo id="N_5_2" depart="161.00" departLane="-591072157#1_0" departPos="4.60" departSpeed="7.35" departDelay="0.29" arrival="195.00" arrivalLane="666212794#1_0" arrivalPos="2.35" arrivalSpeed="12.53" duration="34.00" routeLength="182.18" waitingTime="5.00" waitingCount="1" stopTime="0.00" timeLoss="11.54" rerouteNo="0" devices="tripinfo_N_5_2" vType="car" speedFactor="0.88" vaporized=""/>
    <tripinfo id="N_5_3" depart="165.00" departLane="-591072157#1_0" departPos="4.60" departSpeed="7.62" departDelay="0.00" arrival="198.00" arrivalLane="666212794#1_0" arrivalPos="2.35" arrivalSpeed="13.21" duration="33.00" routeLength="182.18" waitingTime="2.00" waitingCount="1" stopTime="0.00" timeLoss="10.75" rerouteNo="0" devices="tripinfo_N_5_3" vType="car" speedFactor="0.91" vaporized=""/>
    <tripinfo id="N_5_4" depart="170.00" departLane="-591072157#1_0" departPos="4.60" departSpeed="8.52" departDelay="0.71" arrival="200.00" arrivalLane="666212794#1_0" arrivalPos="2.35" arrivalSpeed="12.93" duration="30.00" routeLength="182.18" waitingTime="0.00" waitingCount="0" stopTime="0.00" timeLoss="9.80" rerouteNo="0" devices="tripinfo_N_5_4" vType="car" speedFactor="1.02" vaporized=""/>