<?xml version="1.0" encoding="UTF-8"?>

<!-- generated on 2026-06-06 17:43:23 by Eclipse SUMO sumo Version 1.20.0
<configuration xmlns:xsi="http://www.w3.org/2001/XMLSchema-instance" xsi:noNamespaceSchemaLocation="http://sumo.dlr.de/xsd/sumoConfiguration.xsd">

    <input>
        <net-file value="sumo/agadir_talborjt/agadir_controlled.net.xml"/>
        <route-files value="sumo/agadir_talborjt/agadir.rou.xml"/>
    </input>

    <output>
        <summary-output value="sumo/agadir_talborjt/results/mdp_native_summary.xml"/>
        <tripinfo-output value="sumo/agadir_talborjt/results/mdp_native_tripinfo.xml"/>
    </output>

    <time>
        <begin value="0"/>
        <end value="600"/>
        <step-length value="1"/>
    </time>

    <processing>
        <ignore-route-errors value="true"/>
    </processing>

    <report>
        <duration-log.disable value="true"/>
        <no-step-log value="true"/>
    </report>

    <traci_server>
        <remote-port value="8813"/>
    </traci_server>

</configuration>
-->

<tripinfos xmlns:xsi="http://www.w3.org/2001/XMLSchema-instance" xsi:noNamespaceSchemaLocation="http://sumo.dlr.de/xsd/tripinfo_file.xsd">
    <tripinfo id="W_0_0" depart="4.00" departLane="440316493#2_0" departPos="2.07" departSpeed="0.00" departDelay="0.25" arrival="11.00" arrivalLane="-180596058#2_0" arrivalPos="0.20" arrivalSpeed="11.36" duration="7.00" routeLength="35.95" waitingTime="0.00" waitingCount="0" stopTime="0.00" timeLoss="3.86" rerouteNo="0" devices="tripinfo_W_0_0" vType="car" speedFactor="0.94" vaporized=""/>
    <tripinfo id="W_0_1" depart="12.00" departLane="440316493#2_0" departPos="2.07" departSpeed="13.90" departDelay="0.75" arrival="15.00" arrivalLane="-180596058#2_0" arrivalPos="0.20" arrivalSpeed="13.55" duration="3.00" routeLength="35.95" waitingTime="0.00" waitingCount="0" stopTime="0.00" timeLoss="0.09" rerouteNo="0" devices="tripinfo_W_0_1" vType="car" speedFactor="1.08" vaporized=""/>
    <tripinfo id="E_0_0" depart="15.00" departLane="180596058#2_0" departPos="0.37" departSpeed="13.90" departDelay="0.00" arrival="18.00" arrivalLane="-440316493#2_0" arrivalPos="2.07" arrivalSpeed="13.42" duration="3.00" routeLength="36.93" waitingTime="0.00" waitingCount="0" stopTime="0.00" timeLoss="0.10" rerouteNo="0" devices="tripinfo_E_0_0" vType="car" speedFactor="1.05" vaporized=""/>
    <tripinfo id="N_0_0" depart="3.00" departLane="-591072157#1_0" departPos="4.60" departSpeed="8.83" departDelay="0.00" arrival="25.00" arrivalLane="666212794#1_0" arrivalPos="2.35" arrivalSpeed="12.68" duration="22.00" routeLength="182.18" waitingTime="0.00" waitingCount="0" stopTime="0.00" timeLoss="2.08" rerouteNo="0" devices="tripinfo_N_0_0" vType="car" speedFactor="1.06" vaporized=""/>
    <tripinfo id="N_0_1" depart="9.00" departLane="-591072157#1_0" departPos="4.60" departSpeed="8.42" departDelay="0.00" arrival="32.00" arrivalLane="666212794#1_0" arrivalPos="2.35" arrivalSpeed="13.78" duration="23.00" routeLength="182.18" waitingTime="0.00" waitingCount="0" stopTime="0.00" timeLoss="2.37" rerouteNo="0" devices="tripinfo_N_0_1" vType="car" speedFactor="1.01" vaporized=""/>
    <tripinfo id="N_0_2" depart="15.00" departLane="-591072157#1_0" departPos="4.60" departSpeed="8.58" departDelay="0.00" arrival="37.00" arrivalLane="666212794#1_0" arrivalPos="2.35" arrivalSpeed="13.12" duration="22.00" routeLength="182.18" waitingTime="0.00" waitingCount="0" stopTime="0.00" timeLoss="2.23" rerouteNo="0" devices="tripinfo_N_0_2" vType="car" speedFactor="1.03" vaporized=""/>
    <tripinfo id="N_0_3" depart="21.00" departLane="-591072157#1_0" departPos="4.60" departSpeed="7.81" departDelay="0.00" arrival="45.00" arrivalLane="666212794#1_0" arrivalPos="2.35" arrivalSpeed="12.45" duration="24.00" routeLength="182.18" waitingTime="0.00" waitingCount="0" stopTime="0.00" timeLoss="2.60" rerouteNo="0" devices="tripinfo_N_0_3" vType="car" speedFactor="0.94" vaporized=""/>
    <tripinfo id="N_0_4" depart="27.00" departLane="-591072157#1_0" departPos="4.60" departSpeed="9.09" departDelay="0.00" arrival="48.00" arrivalLane="666212794#1_0" arrivalPos="2.35" arrivalSpeed="13.45" duration="21.00" routeLength="182.18" waitingTime="0.00" waitingCount="0" stopTime="0.00" timeLoss="1.92" rerouteNo="0" devices="tripinfo_N_0_4" vType="car" speedFactor="1.09" vaporized=""/>
    <tripinfo id="S_0_0" depart="15.00" departLane="-28805336#0_0" departPos="2.21" departSpeed="0.00" departDelay="0.00" arrival="49.00" arrivalLane="591072157#1_0" arrivalPos="154.31" arrivalSpeed="6.32" duration="34.00" routeLength="184.60" waitingTime="4.00" waitingCount="1" stopTime="0.00" timeLoss="9.08" rerouteNo="0" devices="tripinfo_S_0_0" vType="car" speedFactor="0.83" vaporized=""/>
    <tripinfo id="N_1_0" depart="33.00" departLane="-591072157#1_0" departPos="4.60" departSpeed="8.55" departDelay="0.50" arrival="56.00" arrivalLane="666212794#1_0" arrivalPos="2.35" arrivalSpeed="13.38" duration="23.00" routeLength="182.18" waitingTime="0.00" waitingCount="0" stopTime="0.00" timeLoss="2.69" rerouteNo="0" devices="tripinfo_N_1_0" vType="car" speedFactor="1.03" vaporized=""/>
    <tripinfo id="N_1_1" depart="38.00" departLane="-591072157#1_0" departPos="4.60" departSpeed="9.35" departDelay="0.50" arrival="59.00" arrivalLane="666212794#1_0" arrivalPos="2.35" arrivalSpeed="13.79" duration="21.00" routeLength="182.18" waitingTime="0.00" waitingCount="0" stopTime="0.00" timeLoss="2.24" rerouteNo="0" devices="tripinfo_N_1_1" vType="car" speedFactor="1.12" vaporized=""/>
    <tripinfo id="N_1_2" depart="43.00" departLane="-591072157#1_0" departPos="4.60" departSpeed="7.32" departDelay="0.50" arrival="69.00" arrivalLane="666212794#1_0" arrivalPos="2.35" arrivalSpeed="12.96" duration="26.00" routeLength="182.18" waitingTime="0.00" waitingCount="0" stopTime="0.00" timeLoss="2.97" rerouteNo="0" devices="tripinfo_N_1_2" vType="car" speedFactor="0.88" vaporized=""/>
    <tripinfo id="S_1_0" depart="45.00" departLane="-28805336#0_0" departPos="2.21" departSpeed="13.90" departDelay="0.00" arrival="70.00" arrivalLane="591072157#1_0" arrivalPos="154.31" arrivalSpeed="6.72" duration="25.00" routeLength="184.60" waitingTime="0.00" waitingCount="0" stopTime="0.00" timeLoss="2.27" rerouteNo="0" devices="tripinfo_S_1_0" vType="car" speedFactor="0.94" vaporized=""/>
    <tripinfo id="N_1_3" depart="48.00" departLane="-591072157#1_0" departPos="4.60" departSpeed="7.80" departDelay="0.50" arrival="73.00" arrivalLane="666212794#1_0" arrivalPos="2.35" arrivalSpeed="13.32" duration="25.00" routeLength="182.18" waitingTime="0.00" waitingCount="0" stopTime="0.00" timeLoss="3.24" rerouteNo="0" devices="tripinfo_N_1_3" vType="car" speedFactor="0.94" vaporized=""/>
    <tripinfo id="N_1_4" depart="53.00" departLane="-591072157#1_0" departPos="4.60" departSpeed="8.48" departDelay="0.50" arrival="76.00" arrivalLane="666212794#1_0" arrivalPos="2.35" arrivalSpeed="13.16" duration="23.00" routeLength="182.18" waitingTime="0.00" waitingCount="0" stopTime="0.00" timeLoss="2.70" rerouteNo="0" devices="tripinfo_N_1_4" vType="car" speedFactor="1.02" vaporized=""/>
    <tripinfo id="N_1_5" depart="58.00" departLane="-591072157#1_0" departPos="4.60" departSpeed="7.41" departDelay="0.50" arrival="84.00" arrivalLane="666212794#1_0" arrivalPos="2.35" arrivalSpeed="12.25" duration="26.00" routeLength="182.18" waitingTime="0.00" waitingCount="0" stopTime="0.00" timeLoss="3.08" rerouteNo="0" devices="tripinfo_N_1_5" vType="car" speedFactor="0.89" vaporized=""/>
    <tripinfo id="N_2_0" depart="63.00" departLane="-591072157#1_0" departPos="4.60" departSpeed="6.88" departDelay="0.86" arrival="90.00" arrivalLane="666212794#1_0" arrivalPos="2.35" arrivalSpeed="12.18" duration="27.00" routeLength="182.18" waitingTime="0.00" waitingCount="0" stopTime="0.00" timeLoss="2.53" rerouteNo="0" devices="tripinfo_N_2_0" vType="car" speedFactor="0.83" vaporized=""/>
    <tripinfo id="N_2_1" depart="67.00" departLane="-591072157#1_0" departPos="4.60" departSpeed="7.64" departDelay="0.57" arrival="92.00" arrivalLane="666212794#1_0" arrivalPos="2.35" arrivalSpeed="12.71" duration="25.00" routeLength="182.18" waitingTime="0.00" waitingCount="0" stopTime="0.00" timeLoss="2.94" rerouteNo="0" devices="tripinfo_N_2_1" vType="car" speedFactor="0.92" vaporized=""/>
    <tripinfo id="N_2_2" depart="71.00" departLane="-591072157#1_0" departPos="4.60" departSpeed="9.43" departDelay="0.29" arrival="94.00" arrivalLane="666212794#1_0" arrivalPos="2.35" arrivalSpeed="12.93" duration="23.00" routeLength="182.18" waitingTime="0.00" waitingCount="0" stopTime="0.00" timeLoss="4.51" rerouteNo="0" devices="tripinfo_N_2_2" vType="car" speedFactor="1.13" vaporized=""/>
    <tripinfo id="N_2_3" depart="75.00" departLane="-591072157#1_0" departPos="4.60" departSpeed="9.82" departDelay="0.00" arrival="96.00" arrivalLane="666212794#1_0" arrivalPos="2.35" arrivalSpeed="12.78" duration="21.00" routeLength="182.18" waitingTime="0.00" waitingCount="0" stopTime="0.00" timeLoss="2.94" rerouteNo="0" devices="tripinfo_N_2_3" vType="car" speedFactor="1.18" vaporized=""/>
    <tripinfo id="N_2_4" depart="80.00" departLane="-591072157#1_0" departPos="4.60" departSpeed="8.37" departDelay="0.71" arrival="103.00" arrivalLane="666212794#1_0" arrivalPos="2.35" arrivalSpeed="13.70" duration="23.00" routeLength="182.18" waitingTime="0.00" waitingCount="0" stopTime="0.00" timeLoss="2.44" rerouteNo="0" devices="tripinfo_N_2_4" vType="car" speedFactor="1.01" vaporized=""/>
    <tripinfo id="N_2_5" depart="84.00" departLane="-591072157#1_0" departPos="4.60" departSpeed="8.29" departDelay="0.43" arrival="107.00" arrivalLane="666212794#1_0" arrivalPos="2.35" arrivalSpeed="13.42" duration="23.00" routeLength="182.18" waitingTime="0.00" waitingCount="0" stopTime="0.00" timeLoss="2.50" rerouteNo="0" devices="tripinfo_N_2_5" vType="car" speedFactor="0.99" vaporized=""/>
    <tripinfo id="N_2_6" depart="88.00" departLane="-591072157#1_0" departPos="4.60" departSpeed="8.11" departDelay="0.14" arrival="112.00" arrivalLane="666212794#1_0" arrivalPos="2.35" arrivalSpeed="12.56" duration="24.00" routeLength="182.18" waitingTime="0.00" waitingCount="0" stopTime="0.00" timeLoss="2.95" rerouteNo="0" devices="tripinfo_N_2_6" vType="car" speedFactor="0.97" vaporized=""/>
    <tripinfo id="W_0_2" depart="19.00" departLane="440316493#2_0" departPos="2.07" departSpeed="13.90" departDelay="0.25" arrival="115.00" arrivalLane="-180596058#2_0" arrivalPos="0.20" arrivalSpeed="12.35" duration="96.00" routeLength="35.95" waitingTime="90.00" waitingCount="1" stopTime="0.00" timeLoss="92.76" rerouteNo="0" devices="tripinfo_W_0_2" vType="car" speedFactor="0.89" vaporized=""/>
    <tripinfo id="E_1_0" depart="38.00" departLane="180596058#2_0" departPos="0.37" departSpeed="0.00" departDelay="0.50" arrival="116.00" arrivalLane="-440316493#2_0" arrivalPos="2.07" arrivalSpeed="12.04" duration="78.00" routeLength="36.93" waitingTime="71.00" waitingCount="1" stopTime="0.00" timeLoss="74.58" rerouteNo="0" devices="tripinfo_E_1_0" vType="car" speedFactor="0.99" vaporized=""/>
    <tripinfo id="E_1_1" depart="112.00" departLane="180596058#2_0" departPos="0.37" departSpeed="4.24" departDelay="59.50" arrival="117.00" arrivalLane="-440316493#2_0" arrivalPos="2.07" arrivalSpeed="11.15" duration="5.00" routeLength="36.93" waitingTime="0.00" waitingCount="0" stopTime="0.00" timeLoss="2.30" rerouteNo="0" devices="tripinfo_E_1_1" vType="car" speedFactor="1.01" vaporized=""/>
    <tripinfo id="W_0_3" depart="112.00" departLane="440316493#2_0" departPos="2.07" departSpeed="3.91" departDelay="85.75" arrival="118.00" arrivalLane="-180596058#2_0" arrivalPos="0.20" arrivalSpeed="12.07" duration="6.00" routeLength="35.95" waitingTime="0.00" waitingCount="0" stopTime="0.00" timeLoss="2.62" rerouteNo="0" devices="tripinfo_W_0_3" vType="car" speedFactor="0.86" vaporized=""/>
    <tripinfo id="E_2_0" depart="114.00" departLane="180596058#2_0" departPos="0.37" departSpeed="3.53" departDelay="46.50" arrival="120.00" arrivalLane="-440316493#2_0" arrivalPos="2.07" arrivalSpeed="12.71" duration="6.00" routeLength="36.93" waitingTime="0.00" waitingCount="0" stopTime="0.00" timeLoss="2.72" rerouteNo="0" devices="tripinfo_E_2_0" vType="car" speedFactor="0.95" vaporized=""/>
    <tripinfo id="W_1_0" depart="114.00" departLane="440316493#2_0" departPos="2.07" departSpeed="1.71" departDelay="80.25" arrival="121.00" arrivalLane="-180596058#2_0" arrivalPos="0.20" arrivalSpeed="13.27" duration="7.00" routeLength="35.95" waitingTime="0.00" waitingCount="0" stopTime="0.00" timeLoss="3.64" rerouteNo="0" devices="tripinfo_W_1_0" vType="car" speedFactor="1.05" vaporized=""/>
    <tripinfo id="E_2_1" depart="116.00" departLane="180596058#2_0" departPos="0.37" departSpeed="1.39" departDelay="33.50" arrival="123.00" arrivalLane="-440316493#2_0" arrivalPos="2.07" arrivalSpeed="12.51" duration="7.00" routeLength="36.93" waitingTime="0.00" waitingCount="0" stopTime="0.00" timeLoss="3.54" rerouteNo="0" devices="tripinfo_E_2_1" vType="car" speedFactor="1.17" vaporized=""/>
    <tripinfo id="W_1_1" depart="117.00" departLane="440316493#2_0" departPos="2.07" departSpeed="0.57" departDelay="75.75" arrival="124.00" arrivalLane="-180596058#2_0" arrivalPos="0.20" arrivalSpeed="10.45" duration="7.00" routeLength="35.95" waitingTime="0.00" waitingCount="0" stopTime="0.00" timeLoss="4.16" rerouteNo="0" devices="tripinfo_W_1_1" vType="car" speedFactor="0.93" vaporized=""/>
    <tripinfo id="W_1_2" depart="121.00" departLane="440316493#2_0" departPos="2.07" departSpeed="5.90" departDelay="72.25" arrival="126.00" arrivalLane="-180596058#2_0" arrivalPos="0.20" arrivalSpeed="10.93" duration="5.00" routeLength="35.95" waitingTime="0.00" waitingCount="0" stopTime="0.00" timeLoss="2.11" rerouteNo="0" devices="tripinfo_W_1_2" vType="car" speedFactor="1.16" vaporized=""/>
    <tripinfo id="E_3_0" depart="119.00" departLane="180596058#2_0" departPos="0.37" departSpeed="2.56" departDelay="21.50" arrival="126.00" arrivalLane="-440316493#2_0" arrivalPos="2.07" arrivalSpeed="12.19" duration="7.00" routeLength="36.93" waitingTime="0.00" waitingCount="0" stopTime="0.00" timeLoss="3.48" rerouteNo="0" devices="tripinfo_E_3_0" vType="car" speedFactor="0.90" vaporized=""/>
    <tripinfo id="S_3_0" depart="105.00" departLane="-28805336#0_0" departPos="2.21" departSpeed="13.90" departDelay="0.00" arrival="127.00" arrivalLane="591072157#1_0" arrivalPos="154.31" arrivalSpeed="8.31" duration="22.00" routeLength="184.60" waitingTime="0.00" waitingCount="0" stopTime="0.00" timeLoss="1.50" rerouteNo="0" devices="tripinfo_S_3_0" vType="car" speedFactor="1.04" vaporized=""/>
    <tripinfo id="W_1_3" depart="123.00" departLane="440316493#2_0" departPos="2.07" departSpeed="5.67" departDelay="66.75" arrival="128.00" arrivalLane="-180596058#2_0" arrivalPos="0.20" arrivalSpeed="12.58" duration="5.00" routeLength="35.95" waitingTime="0.00" waitingCount="0" stopTime="0.00" timeLoss="1.91" rerouteNo="0" devices="tripinfo_W_1_3" vType="car" speedFactor="0.97" vaporized=""/>
    <tripinfo id="E_3_1" depart="122.00" departLane="180596058#2_0" departPos="0.37" departSpeed="3.44" departDelay="9.50" arrival="128.00" arrivalLane="-440316493#2_0" arrivalPos="2.07" arrivalSpeed="11.92" duration="6.00" routeLength="36.93" waitingTime="0.00" waitingCount="0" stopTime="0.00" timeLoss="2.88" rerouteNo="0" devices="tripinfo_E_3_1" vType="car" speedFactor="1.00" vaporized=""/>
    <tripinfo id="N_3_0" depart="93.00" departLane="-591072157#1_0" departPos="4.60" departSpeed="9.83" departDelay="0.00" arrival="130.00" arrivalLane="666212794#1_0" arrivalPos="2.35" arrivalSpeed="12.16" duration="37.00" routeLength="182.18" waitingTime="13.00" waitingCount="1" stopTime="0.00" timeLoss="18.78" rerouteNo="0" devices="tripinfo_N_3_0" vType="car" speedFactor="1.18" vaporized=""/>
    <tripinfo id="N_3_1" depart="99.00" departLane="-591072157#1_0" departPos="4.60" departSpeed="8.58" departDelay="0.00" arrival="132.00" arrivalLane="666212794#1_0" arrivalPos="2.35" arrivalSpeed="12.82" duration="33.00" routeLength="182.18" waitingTime="6.00" waitingCount="1" stopTime="0.00" timeLoss="12.78" rerouteNo="0" devices="tripinfo_N_3_1" vType="car" speedFactor="1.03" vaporized=""/>
    <tripinfo id="N_3_2" depart="105.00" departLane="-591072157#1_0" departPos="4.60" departSpeed="9.10" departDelay="0.00" arrival="134.00" arrivalLane="666212794#1_0" arrivalPos="2.35" arrivalSpeed="13.71" duration="29.00" routeLength="182.18" waitingTime="3.00" waitingCount="1" stopTime="0.00" timeLoss="9.55" rerouteNo="0" devices="tripinfo_N_3_2" vType="car" speedFactor="1.09" vaporized=""/>
    <tripinfo id="N_3_3" depart="111.00" departLane="-591072157#1_0" departPos="4.60" departSpeed="9.06" departDelay="0.00" arrival="135.00" arrivalLane="666212794#1_0" arrivalPos="2.35" arrivalSpeed="12.66" duration="24.00" routeLength="182.18" waitingTime="0.00" waitingCount="0" stopTime="0.00" timeLoss="5.31" rerouteNo="0" devices="tripinfo_N_3_3" vType="car" speedFactor="1.09" vaporized=""/>
    <tripinfo id="N_3_4" depart="117.00" departLane="-591072157#1_0" departPos="4.60" departSpeed="7.30" departDelay="0.00" arrival="143.00" arrivalLane="666212794#1_0" arrivalPos="2.35" arrivalSpeed="12.40" duration="26.00" routeLength="182.18" waitingTime="0.00" waitingCount="0" stopTime="0.00" timeLoss="3.17" rerouteNo="0" devices="tripinfo_N_3_4" vType="car" speedFactor="0.88" vaporized=""/>
    <tripinfo id="N_4_0" depart="123.00" departLane="-591072157#1_0" departPos="4.60" departSpeed="7.08" departDelay="0.00" arrival="150.00" arrivalLane="666212794#1_0" arrivalPos="2.35" arrivalSpeed="11.60" duration="27.00" routeLength="182.18" waitingTime="0.00" waitingCount="0" stopTime="0.00" timeLoss="3.24" rerouteNo="0" devices="tripinfo_N_4_0" vType="car" speedFactor="0.85" vaporized=""/>
    <tripinfo id="N_4_1" depart="129.00" departLane="-591072157#1_0" departPos="4.60" departSpeed="8.47" departDelay="0.00" arrival="152.00" arrivalLane="666212794#1_0" arrivalPos="2.35" arrivalSpeed="13.12" duration="23.00" routeLength="182.18" waitingTime="0.00" waitingCount="0" stopTime="0.00" timeLoss="2.86" rerouteNo="0" devices="tripinfo_N_4_1" vType="car" speedFactor="1.02" vaporized=""/>
    <tripinfo id="N_4_2" depart="135.00" departLane="-591072157#1_0" departPos="4.60" departSpeed="8.36" departDelay="0.00" arrival="158.00" arrivalLane="666212794#1_0" arrivalPos="2.35" arrivalSpeed="13.61" duration="23.00" routeLength="182.18" waitingTime="0.00" waitingCount="0" stopTime="0.00" timeLoss="2.34" rerouteNo="0" devices="tripinfo_N_4_2" vType="car" speedFactor="1.00" vaporized=""/>
    <tripinfo id="S_4_0" depart="135.00" departLane="-28805336#0_0" departPos="2.21" departSpeed="13.90" departDelay="0.00" arrival="158.00" arrivalLane="591072157#1_0" arrivalPos="154.31" arrivalSpeed="7.21" duration="23.00" routeLength="184.60" waitingTime="0.00" waitingCount="0" stopTime="0.00" timeLoss="1.76" rerouteNo="0" devices="tripinfo_S_4_0" vType="car" speedFactor="1.00" vaporized=""/>
    <tripinfo id="N_4_3" depart="141.00" departLane="-591072157#1_0" departPos="4.60" departSpeed="9.52" departDelay="0.00" arrival="161.00" arrivalLane="666212794#1_0" arrivalPos="2.35" arrivalSpeed="12.62" duration="20.00" routeLength="182.18" waitingTime="0.00" waitingCount="0" stopTime="0.00" timeLoss="1.78" rerouteNo="0" devices="tripinfo_N_4_3" vType="car" speedFactor="1.14" vaporized=""/>
    <tripinfo id="N_4_4" depart="147.00" departLane="-591072157#1_0" departPos="4.60" departSpeed="9.02" departDelay="0.00" arrival="168.00" arrivalLane="666212794#1_0" arrivalPos="2.35" arrivalSpeed="13.37" duration="21.00" routeLength="182.18" waitingTime="0.00" waitingCount="0" stopTime="0.00" timeLoss="1.91" rerouteNo="0" devices="tripinfo_N_4_4" vType="car" speedFactor="1.08" vaporized=""/>
    <tripinfo id="N_5_0" depart="153.00" departLane="-591072157#1_0" departPos="4.60" departSpeed="9.32" departDelay="0.86" arrival="174.00" arrivalLane="666212794#1_0" arrivalPos="2.35" arrivalSpeed="12.76" duration="21.00" routeLength="182.18" waitingTime="0.00" waitingCount="0" stopTime="0.00" timeLoss="1.96" rerouteNo="0" devices="tripinfo_N_5_0" vType="car" speedFactor="1.12" vaporized=""/>
    <tripinfo id="N_5_1" depart="157.00" departLane="-591072157#1_0" departPos="4.60" departSpeed="8.22" departDelay="0.57" arrival="180.00" arrivalLane="666212794#1_0" arrivalPos="2.35" arrivalSpeed="13.84" duration="23.00" routeLength="182.18" waitingTime="0.00" waitingCount="0" stopTime="0.00" timeLoss="2.36" rerouteNo="0" devices="tripinfo_N_5_1" vType="car" speedFactor="0.99" vaporized=""/>
    <tripinfo id="N_5_2" depart="161.00" departLane="-591072157#1_0" departPos="4.60" departSpeed="7.35" departDelay="0.29" arrival="187.00" arrivalLane="666212794#1_0" arrivalPos="2.35" arrivalSpeed="13.37" duration="26.00" routeLength="182.18" waitingTime="0.00" waitingCount="0" stopTime="0.00" timeLoss="3.01" rerouteNo="0" devices="tripinfo_N_5_2" vType="car" speedFactor="0.88" vaporized=""/>
    <tripinfo id="S_5_0" depart="165.00" departLane="-28805336#0_0" departPos="2.21" departSpeed="13.90" departDelay="0.00" arrival="187.00" arrivalLane="591072157#1_0" arrivalPos="154.31" arrivalSpeed="8.27" duration="22.00" routeLength="184.60" waitingTime="0.00" waitingCount="0" stopTime="0.00" timeLoss="1.57" rerouteNo="0" devices="tripinfo_S_5_0" vType="car" speedFactor="1.04" vaporized=""/>
    <tripinfo id="N_5_3" depart="165.00" departLane="-591072157#1_0" departPos="4.60" departSpeed="7.62" departDelay="0.00" arrival="191.00" arrivalLane="666212794#1_0" arrivalPos="2.35" arrivalSpeed="13.27" duration="26.00" routeLength="182.18" waitingTime="0.00" waitingCount="0" stopTime="0.00" timeLoss="3.56" rerouteNo="0" devices="tripinfo_N_5_3" vType="car" speedFactor="0.91" vaporized=""/>
    <tripinfo id="N_5_4" depart="170.00" departLane="-591072157#1_0" departPos="4.60" departSpeed="8.52" departDelay="0.71" arrival="193.00" arrivalLane="666212794#1_0" arrivalPos="2.35" arrivalSpeed="12.75" duration="23.00" routeLength="182.18" waitingTime="0.00" waitingCount="0" stopTime="0.00" timeLoss="2.59" rerouteNo="0" devices="tripinfo_N_5_4" vType="car" speedFactor="1.02" vaporized=""/>
    <tripinfo id="N_5_5" depart="174.00" departLane="-591072157#1_0" departPos="4.60" departSpeed="7.83" departDelay="0.43" arrival="199.00" arrivalLane="666212794#1_0" arrivalPos="2.35" arrivalSpeed="13.73" duration="25.00" routeLength="182.18" waitingTime="0.00" waitingCount="0" stopTime="0.00" timeLoss="2.96" rerouteNo="0" devices="tripinfo_N_5_5" vType="car" speedFactor="0.94" vaporized=""/>
    <tripinfo id="N_5_6" depart="178.00" departLane="-591072157#1_0" departPos="4.60" departSpeed="7.96" departDelay="0.14" arrival="202.00" arrivalLane="666212794#1_0" arrivalPos="2.35" arrivalSpeed="12.57" duration="24.00" routeLength="182.18" waitingTime="0.00" waitingCount="0" stopTime="0.00" timeLoss="2.92" rerouteNo="0" devices="tripinfo_N_5_6" vType="car" speedFactor="0.96" vaporized=""/>
    <tripinfo id="N_6_0" depart="183.00" departLane="-591072157#1_0" departPos="4.60" departSpeed="8.20" departDelay="0.86" arrival="206.00" arrivalLane="666212794#1_0" arrivalPos="2.35" arrivalSpeed="13.47" duration="23.00" routeLength="182.18" waitingTime="0.00" waitingCount="0" stopTime="0.00" timeLoss="2.04" rerouteNo="0" devices="tripinfo_N_6_0" vType="car" speedFactor="0.98" vaporized=""/>
    <tripinfo id="N_6_1" depart="187.00" departLane="-591072157#1_0" departPos="4.60" departSpeed="8.18" departDelay="0.57" arrival="210.00" arrivalLane="666212794#1_0" arrivalPos="2.35" arrivalSpeed="13.68" duration="23.00" routeLength="182.18" waitingTime="0.00" waitingCount="0" stopTime="0.00" timeLoss="2.29" rerouteNo="0" devices="tripinfo_N_6_1" vType="car" speedFactor="0.98" vaporized=""/>
    <tripinfo id="N_6_2" depart="191.00" departLane="-591072157#1_0" departPos="4.60" departSpeed="8.39" departDelay="0.29" arrival="214.00" arrivalLane="666212794#1_0" arrivalPos="2.35" arrivalSpeed="13.56" duration="23.00" routeLength="182.18" waitingTime="0.00" waitingCount="0" stopTime="0.00" timeLoss="2.92" rerouteNo="0" devices="tripinfo_N_6_2" vType="car" speedFactor="1.01" vaporized=""/>
    <tripinfo id="N_6_3" depart="195.00" departLane="-591072157#1_0" departPos="4.60" departSpeed="8.62" departDelay="0.00" arrival="217.00" arrivalLane="666212794#1_0" arrivalPos="2.35" arrivalSpeed="13.01" duration="22.00" routeLength="182.18" waitingTime="0.00" waitingCount="0" stopTime="0.00" timeLoss="2.37" rerouteNo="0" devices="tripinfo_N_6_3" vType="car" speedFactor="1.03" vaporized=""/>
    <tripinfo id="S_6_0" depart="195.00" departLane="-28805336#0_0" departPos="2.21" departSpeed="13.90" departDelay="0.00" arrival="219.00" arrivalLane="591072157#1_0" arrivalPos="154.31" arrivalSpeed="7.56" duration="24.00" routeLength="184.60" waitingTime="0.00" waitingCount="0" stopTime="0.00" timeLoss="2.25" rerouteNo="0" devices="tripinfo_S_6_0" vType="car" speedFactor="1.00" vaporized=""/>
    <tripinfo id="N_6_4" depart="200.00" departLane="-591072157#1_0" departPos="4.60" departSpeed="9.56" departDelay="0.71" arrival="220.00" arrivalLane="666212794#1_0" arrivalPos="2.35" arrivalSpeed="13.08" duration="20.00" routeLength="182.18" waitingTime="0.00" waitingCount="0" stopTime="0.00" timeLoss="1.85" rerouteNo="0" devices="tripinfo_N_6_4" vType="car" speedFactor="1.15" vaporized=""/>
    <tripinfo id="N_6_5" depart="204.00" departLane="-591072157#1_0" departPos="4.60" departSpeed="8.13" departDelay="0.43" arrival="227.00" arrivalLane="666212794#1_0" arrivalPos="2.35" arrivalSpeed="13.61" duration="23.00" routeLength="182.18" waitingTime="0.00" waitingCount="0" stopTime="0.00" timeLoss="2.12" rerouteNo="0" devices="tripinfo_N_6_5" vType="car" speedFactor="0.98" vaporized=""/>
    <tripinfo id="N_6_6" depart="208.00" departLane="-591072157#1_0" departPos="4.60" departSpeed="8.69" departDelay="0.14" arrival="230.00" arrivalLane="666212794#1_0" arrivalPos="2.35" arrivalSpeed="12.74" duration="22.00" routeLength="182.18" waitingTime="0.00" waitingCount="0" stopTime="0.00" timeLoss="1.86" rerouteNo="0" devices="tripinfo_N_6_6" vType="car" speedFactor="1.04" vaporized=""/>
    <tripinfo id="N_7_0" depart="213.00" departLane="-591072157#1_0" departPos="4.60" departSpeed="8.39" departDelay="0.86" arrival="236.00" arrivalLane="666212794#1_0" arrivalPos="2.35" arrivalSpeed="12.42" duration="23.00" routeLength="182.18" waitingTime="0.00" waitingCount="0" stopTime="0.00" timeLoss="2.48" rerouteNo="0" devices="tripinfo_N_7_0" vType="car" speedFactor="1.01" vaporized=""/>
    <tripinfo id="N_7_1" depart="217.00" departLane="-591072157#1_0" departPos="4.60" departSpeed="8.47" departDelay="0.57" arrival="240.00" arrivalLane="666212794#1_0" arrivalPos="2.35" arrivalSpeed="12.98" duration="23.00" routeLength="182.18" waitingTime="0.00" waitingCount="0" stopTime="0.00" timeLoss="2.53" rerouteNo="0" devices="tripinfo_N_7_1" vType="car" speedFactor="1.02" vaporized=""/>
    <tripinfo id="S_7_0" depart="225.00" departLane="-28805336#0_0" departPos="2.21" departSpeed="13.90" departDelay="0.00" arrival="246.00" arrivalLane="591072157#1_0" arrivalPos="154.31" arrivalSpeed="8.69" duration="21.00" routeLength="184.60" waitingTime="0.00" waitingCount="0" stopTime="0.00" timeLoss="1.24" rerouteNo="0" devices="tripinfo_S_7_0" vType="car" speedFactor="1.09" vaporized=""/>
    <tripinfo id="N_7_2" depart="221.00" departLane="-591072157#1_0" departPos="4.60" departSpeed="7.43" departDelay="0.29" arrival="247.00" arrivalLane="666212794#1_0" arrivalPos="2.35" arrivalSpeed="13.11" duration="26.00" routeLength="182.18" waitingTime="0.00" waitingCount="0" stopTime="0.00" timeLoss="2.86" rerouteNo="0" devices="tripinfo_N_7_2" vType="car" speedFactor="0.89" vaporized=""/>
    <tripinfo id="N_7_3" depart="225.00" departLane="-591072157#1_0" departPos="4.60" departSpeed="7.68" departDelay="0.00" arrival="250.00" arrivalLane="666212794#1_0" arrivalPos="2.35" arrivalSpeed="13.11" duration="25.00" routeLength="182.18" waitingTime="0.00" waitingCount="0" stopTime="0.00" timeLoss="2.72" rerouteNo="0" devices="tripinfo_N_7_3" vType="car" speedFactor="0.92" vaporized=""/>
    <tripinfo id="N_7_4" depart="230.00" departLane="-591072157#1_0" departPos="4.60" departSpeed="7.55" departDelay="0.71" arrival="255.00" arrivalLane="666212794#1_0" arrivalPos="2.35" arrivalSpeed="12.21" duration="25.00" routeLength="182.18" waitingTime="0.00" waitingCount="0" stopTime="0.00" timeLoss="2.86" rerouteNo="0" devices="tripinfo_N_7_4" vType="car" speedFactor="0.91" vaporized=""/>
    <tripinfo id="N_7_5" depart="234.00" departLane="-591072157#1_0" departPos="4.60" departSpeed="9.34" departDelay="0.43" arrival="257.00" arrivalLane="666212794#1_0" arrivalPos="2.35" arrivalSpeed="13.44" duration="23.00" routeLength="182.18" waitingTime="0.00" waitingCount="0" stopTime="0.00" timeLoss="4.42" rerouteNo="0" devices="tripinfo_N_7_5" vType="car" speedFactor="1.12" vaporized=""/>
    <tripinfo id="N_7_6" depart="238.00" departLane="-591072157#1_0" departPos="4.60" departSpeed="8.87" departDelay="0.14" arrival="260.00" arrivalLane="666212794#1_0" arrivalPos="2.35" arrivalSpeed="13.62" duration="22.00" routeLength="182.18" waitingTime="0.00" waitingCount="0" stopTime="0.00" timeLoss="2.40" rerouteNo="0" devices="tripinfo_N_7_6" vType="car" speedFactor="1.06" vaporized=""/>
    <tripinfo id="N_8_0" depart="243.00" departLane="-591072157#1_0" departPos="4.60" departSpeed="7.97" departDelay="0.50" arrival="267.00" arrivalLane="666212794#1_0" arrivalPos="2.35" arrivalSpeed="12.37" duration="24.00" routeLength="182.18" waitingTime="0.00" waitingCount="0" stopTime="0.00" timeLoss="2.73" rerouteNo="0" devices="tripinfo_N_8_0" vType="car" speedFactor="0.96" vaporized=""/>